TITLE = "  3.58796E-04 [d]"
VARIABLES="X [m]","Y [m]","Z [m]","Liquid Pressure [Pa]","Liquid Saturation","Liquid Head [m]","Liquid Relative Permeability","Porosity","Permeability [m^2]","Material ID","Material ID"
ZONE T="3.58796E-04", STRANDID=1, SOLUTIONTIME=3.58796E-04, I=1, J=1, K=80, DATAPACKING=POINT
 5.000000E-01  5.000000E-01  1.250000E-02  1.249022E+05  1.000000E+00  1.277242E+01  1.000000E+00  4.300000E-01  4.551391E-13    1    1 
 5.000000E-01  5.000000E-01  3.750000E-02  1.247066E+05  1.000000E+00  1.275242E+01  1.000000E+00  4.300000E-01  4.551391E-13    1    1 
 5.000000E-01  5.000000E-01  6.250000E-02  1.245111E+05  1.000000E+00  1.273242E+01  1.000000E+00  4.300000E-01  4.551391E-13    1    1 
 5.000000E-01  5.000000E-01  8.750000E-02  1.243155E+05  1.000000E+00  1.271243E+01  1.000000E+00  4.300000E-01  4.551391E-13    1    1 
 5.000000E-01  5.000000E-01  1.125000E-01  1.241199E+05  1.000000E+00  1.269243E+01  1.000000E+00  4.300000E-01  4.551391E-13    1    1 
 5.000000E-01  5.000000E-01  1.375000E-01  1.239244E+05  1.000000E+00  1.267243E+01  1.000000E+00  4.300000E-01  4.551391E-13    1    1 
 5.000000E-01  5.000000E-01  1.625000E-01  1.237288E+05  1.000000E+00  1.265243E+01  1.000000E+00  4.300000E-01  4.551391E-13    1    1 
 5.000000E-01  5.000000E-01  1.875000E-01  1.235332E+05  1.000000E+00  1.263244E+01  1.000000E+00  4.300000E-01  4.551391E-13    1    1 
 5.000000E-01  5.000000E-01  2.125000E-01  1.233377E+05  1.000000E+00  1.261244E+01  1.000000E+00  4.300000E-01  4.551391E-13    1    1 
 5.000000E-01  5.000000E-01  2.375000E-01  1.231421E+05  1.000000E+00  1.259244E+01  1.000000E+00  4.300000E-01  4.551391E-13    1    1 
 5.000000E-01  5.000000E-01  2.625000E-01  1.229465E+05  1.000000E+00  1.257244E+01  1.000000E+00  4.300000E-01  4.551391E-13    1    1 
 5.000000E-01  5.000000E-01  2.875000E-01  1.227510E+05  1.000000E+00  1.255245E+01  1.000000E+00  4.300000E-01  4.551391E-13    1    1 
 5.000000E-01  5.000000E-01  3.125000E-01  1.225554E+05  1.000000E+00  1.253245E+01  1.000000E+00  4.300000E-01  4.551391E-13    1    1 
 5.000000E-01  5.000000E-01  3.375000E-01  1.223598E+05  1.000000E+00  1.251245E+01  1.000000E+00  4.300000E-01  4.551391E-13    1    1 
 5.000000E-01  5.000000E-01  3.625000E-01  1.221643E+05  1.000000E+00  1.249245E+01  1.000000E+00  4.300000E-01  4.551391E-13    1    1 
 5.000000E-01  5.000000E-01  3.875000E-01  1.219687E+05  1.000000E+00  1.247246E+01  1.000000E+00  4.300000E-01  4.551391E-13    1    1 
 5.000000E-01  5.000000E-01  4.125000E-01  1.217731E+05  1.000000E+00  1.245246E+01  1.000000E+00  4.300000E-01  4.551391E-13    1    1 
 5.000000E-01  5.000000E-01  4.375000E-01  1.215775E+05  1.000000E+00  1.243246E+01  1.000000E+00  4.300000E-01  4.551391E-13    1    1 
 5.000000E-01  5.000000E-01  4.625000E-01  1.213820E+05  1.000000E+00  1.241246E+01  1.000000E+00  4.300000E-01  4.551391E-13    1    1 
 5.000000E-01  5.000000E-01  4.875000E-01  1.211864E+05  1.000000E+00  1.239246E+01  1.000000E+00  4.300000E-01  4.551391E-13    1    1 
 5.000000E-01  5.000000E-01  5.125000E-01  1.209908E+05  1.000000E+00  1.237247E+01  1.000000E+00  4.300000E-01  4.551391E-13    1    1 
 5.000000E-01  5.000000E-01  5.375000E-01  1.207953E+05  1.000000E+00  1.235247E+01  1.000000E+00  4.300000E-01  4.551391E-13    1    1 
 5.000000E-01  5.000000E-01  5.625000E-01  1.205997E+05  1.000000E+00  1.233247E+01  1.000000E+00  4.300000E-01  4.551391E-13    1    1 
 5.000000E-01  5.000000E-01  5.875000E-01  1.204041E+05  1.000000E+00  1.231247E+01  1.000000E+00  4.300000E-01  4.551391E-13    1    1 
 5.000000E-01  5.000000E-01  6.125000E-01  1.202086E+05  1.000000E+00  1.229248E+01  1.000000E+00  4.300000E-01  4.551391E-13    1    1 
 5.000000E-01  5.000000E-01  6.375000E-01  1.200130E+05  1.000000E+00  1.227248E+01  1.000000E+00  4.300000E-01  4.551391E-13    1    1 
 5.000000E-01  5.000000E-01  6.625000E-01  1.198174E+05  1.000000E+00  1.225248E+01  1.000000E+00  4.300000E-01  4.551391E-13    1    1 
 5.000000E-01  5.000000E-01  6.875000E-01  1.196219E+05  1.000000E+00  1.223248E+01  1.000000E+00  4.300000E-01  4.551391E-13    1    1 
 5.000000E-01  5.000000E-01  7.125000E-01  1.194263E+05  1.000000E+00  1.221249E+01  1.000000E+00  4.300000E-01  4.551391E-13    1    1 
 5.000000E-01  5.000000E-01  7.375000E-01  1.192307E+05  1.000000E+00  1.219249E+01  1.000000E+00  4.300000E-01  4.551391E-13    1    1 
 5.000000E-01  5.000000E-01  7.625000E-01  1.190352E+05  1.000000E+00  1.217249E+01  1.000000E+00  4.300000E-01  4.551391E-13    1    1 
 5.000000E-01  5.000000E-01  7.875000E-01  1.188396E+05  1.000000E+00  1.215249E+01  1.000000E+00  4.300000E-01  4.551391E-13    1    1 
 5.000000E-01  5.000000E-01  8.125000E-01  1.186440E+05  1.000000E+00  1.213250E+01  1.000000E+00  4.300000E-01  4.551391E-13    1    1 
 5.000000E-01  5.000000E-01  8.375000E-01  1.184485E+05  1.000000E+00  1.211250E+01  1.000000E+00  4.300000E-01  4.551391E-13    1    1 
 5.000000E-01  5.000000E-01  8.625000E-01  1.182529E+05  1.000000E+00  1.209250E+01  1.000000E+00  4.300000E-01  4.551391E-13    1    1 
 5.000000E-01  5.000000E-01  8.875000E-01  1.180573E+05  1.000000E+00  1.207250E+01  1.000000E+00  4.300000E-01  4.551391E-13    1    1 
 5.000000E-01  5.000000E-01  9.125000E-01  1.178618E+05  1.000000E+00  1.205251E+01  1.000000E+00  4.300000E-01  4.551391E-13    1    1 
 5.000000E-01  5.000000E-01  9.375000E-01  1.176662E+05  1.000000E+00  1.203251E+01  1.000000E+00  4.300000E-01  4.551391E-13    1    1 
 5.000000E-01  5.000000E-01  9.625000E-01  1.174706E+05  1.000000E+00  1.201251E+01  1.000000E+00  4.300000E-01  4.551391E-13    1    1 
 5.000000E-01  5.000000E-01  9.875000E-01  1.172751E+05  1.000000E+00  1.199251E+01  1.000000E+00  4.300000E-01  4.551391E-13    1    1 
 5.000000E-01  5.000000E-01  1.012500E+00  1.170795E+05  1.000000E+00  1.197252E+01  1.000000E+00  4.300000E-01  4.551391E-13    1    1 
 5.000000E-01  5.000000E-01  1.037500E+00  1.168839E+05  1.000000E+00  1.195252E+01  1.000000E+00  4.300000E-01  4.551391E-13    1    1 
 5.000000E-01  5.000000E-01  1.062500E+00  1.166884E+05  1.000000E+00  1.193252E+01  1.000000E+00  4.300000E-01  4.551391E-13    1    1 
 5.000000E-01  5.000000E-01  1.087500E+00  1.164928E+05  1.000000E+00  1.191252E+01  1.000000E+00  4.300000E-01  4.551391E-13    1    1 
 5.000000E-01  5.000000E-01  1.112500E+00  1.162972E+05  1.000000E+00  1.189252E+01  1.000000E+00  4.300000E-01  4.551391E-13    1    1 
 5.000000E-01  5.000000E-01  1.137500E+00  1.161017E+05  1.000000E+00  1.187253E+01  1.000000E+00  4.300000E-01  4.551391E-13    1    1 
 5.000000E-01  5.000000E-01  1.162500E+00  1.159061E+05  1.000000E+00  1.185253E+01  1.000000E+00  4.300000E-01  4.551391E-13    1    1 
 5.000000E-01  5.000000E-01  1.187500E+00  1.157105E+05  1.000000E+00  1.183253E+01  1.000000E+00  4.300000E-01  4.551391E-13    1    1 
 5.000000E-01  5.000000E-01  1.212500E+00  1.155150E+05  1.000000E+00  1.181253E+01  1.000000E+00  4.300000E-01  4.551391E-13    1    1 
 5.000000E-01  5.000000E-01  1.237500E+00  1.153194E+05  1.000000E+00  1.179254E+01  1.000000E+00  4.300000E-01  4.551391E-13    1    1 
 5.000000E-01  5.000000E-01  1.262500E+00  1.151238E+05  1.000000E+00  1.177254E+01  1.000000E+00  4.300000E-01  4.551391E-13    1    1 
 5.000000E-01  5.000000E-01  1.287500E+00  1.149283E+05  1.000000E+00  1.175254E+01  1.000000E+00  4.300000E-01  4.551391E-13    1    1 
 5.000000E-01  5.000000E-01  1.312500E+00  1.147327E+05  1.000000E+00  1.173254E+01  1.000000E+00  4.300000E-01  4.551391E-13    1    1 
 5.000000E-01  5.000000E-01  1.337500E+00  1.145371E+05  1.000000E+00  1.171255E+01  1.000000E+00  4.300000E-01  4.551391E-13    1    1 
 5.000000E-01  5.000000E-01  1.362500E+00  1.143416E+05  1.000000E+00  1.169255E+01  1.000000E+00  4.300000E-01  4.551391E-13    1    1 
 5.000000E-01  5.000000E-01  1.387500E+00  1.141460E+05  1.000000E+00  1.167255E+01  1.000000E+00  4.300000E-01  4.551391E-13    1    1 
 5.000000E-01  5.000000E-01  1.412500E+00  1.139504E+05  1.000000E+00  1.165255E+01  1.000000E+00  4.300000E-01  4.551391E-13    1    1 
 5.000000E-01  5.000000E-01  1.437500E+00  1.137549E+05  1.000000E+00  1.163256E+01  1.000000E+00  4.300000E-01  4.551391E-13    1    1 
 5.000000E-01  5.000000E-01  1.462500E+00  1.135593E+05  1.000000E+00  1.161256E+01  1.000000E+00  4.300000E-01  4.551391E-13    1    1 
 5.000000E-01  5.000000E-01  1.487500E+00  1.133637E+05  1.000000E+00  1.159256E+01  1.000000E+00  4.300000E-01  4.551391E-13    1    1 
 5.000000E-01  5.000000E-01  1.512500E+00  1.131682E+05  1.000000E+00  1.157256E+01  1.000000E+00  4.300000E-01  4.551391E-13    1    1 
 5.000000E-01  5.000000E-01  1.537500E+00  1.129726E+05  1.000000E+00  1.155257E+01  1.000000E+00  4.300000E-01  4.551391E-13    1    1 
 5.000000E-01  5.000000E-01  1.562500E+00  1.127770E+05  1.000000E+00  1.153257E+01  1.000000E+00  4.300000E-01  4.551391E-13    1    1 
 5.000000E-01  5.000000E-01  1.587500E+00  1.125815E+05  1.000000E+00  1.151257E+01  1.000000E+00  4.300000E-01  4.551391E-13    1    1 
 5.000000E-01  5.000000E-01  1.612500E+00  1.123859E+05  1.000000E+00  1.149257E+01  1.000000E+00  4.300000E-01  4.551391E-13    1    1 
 5.000000E-01  5.000000E-01  1.637500E+00  1.121903E+05  1.000000E+00  1.147258E+01  1.000000E+00  4.300000E-01  4.551391E-13    1    1 
 5.000000E-01  5.000000E-01  1.662500E+00  1.119948E+05  1.000000E+00  1.145258E+01  1.000000E+00  4.300000E-01  4.551391E-13    1    1 
 5.000000E-01  5.000000E-01  1.687500E+00  1.117992E+05  1.000000E+00  1.143258E+01  1.000000E+00  4.300000E-01  4.551391E-13    1    1 
 5.000000E-01  5.000000E-01  1.712500E+00  1.116036E+05  1.000000E+00  1.141258E+01  1.000000E+00  4.300000E-01  4.551391E-13    1    1 
 5.000000E-01  5.000000E-01  1.737500E+00  1.114081E+05  1.000000E+00  1.139259E+01  1.000000E+00  4.300000E-01  4.551391E-13    1    1 
 5.000000E-01  5.000000E-01  1.762500E+00  1.112125E+05  1.000000E+00  1.137259E+01  1.000000E+00  4.300000E-01  4.551391E-13    1    1 
 5.000000E-01  5.000000E-01  1.787500E+00  1.110169E+05  1.000000E+00  1.135259E+01  1.000000E+00  4.300000E-01  4.551391E-13    1    1 
 5.000000E-01  5.000000E-01  1.812500E+00  1.108214E+05  1.000000E+00  1.133259E+01  1.000000E+00  4.300000E-01  4.551391E-13    1    1 
 5.000000E-01  5.000000E-01  1.837500E+00  1.106258E+05  1.000000E+00  1.131260E+01  1.000000E+00  4.300000E-01  4.551391E-13    1    1 
 5.000000E-01  5.000000E-01  1.862500E+00  1.104302E+05  1.000000E+00  1.129260E+01  1.000000E+00  4.300000E-01  4.551391E-13    1    1 
 5.000000E-01  5.000000E-01  1.887500E+00  1.102347E+05  1.000000E+00  1.127260E+01  1.000000E+00  4.300000E-01  4.551391E-13    1    1 
 5.000000E-01  5.000000E-01  1.912500E+00  1.100391E+05  1.000000E+00  1.125260E+01  1.000000E+00  4.300000E-01  4.551391E-13    1    1 
 5.000000E-01  5.000000E-01  1.937500E+00  1.098435E+05  1.000000E+00  1.123261E+01  1.000000E+00  4.300000E-01  4.551391E-13    1    1 
 5.000000E-01  5.000000E-01  1.962500E+00  1.096480E+05  1.000000E+00  1.121261E+01  1.000000E+00  4.300000E-01  4.551391E-13    1    1 
 5.000000E-01  5.000000E-01  1.987500E+00  1.094524E+05  1.000000E+00  1.119261E+01  1.000000E+00  4.300000E-01  4.551391E-13    1    1 
