TITLE = "   1.7361E-04 [d]"
VARIABLES="X [m]","Y [m]","Z [m]","qlx [m/day]","qly [m/day]","qlz [m/day]","Material_ID"
ZONE T= "  1.73611E-04", I=    1, J=    1, K=   80, DATAPACKING=POINT
 5.000000E-01  5.000000E-01  1.250000E-02  0.000000E+00  0.000000E+00 -8.630573E-02    1 
 5.000000E-01  5.000000E-01  3.750000E-02  0.000000E+00  0.000000E+00 -8.630578E-02    1 
 5.000000E-01  5.000000E-01  6.250000E-02  0.000000E+00  0.000000E+00 -8.630586E-02    1 
 5.000000E-01  5.000000E-01  8.750000E-02  0.000000E+00  0.000000E+00 -8.630597E-02    1 
 5.000000E-01  5.000000E-01  1.125000E-01  0.000000E+00  0.000000E+00 -8.630613E-02    1 
 5.000000E-01  5.000000E-01  1.375000E-01  0.000000E+00  0.000000E+00 -8.630631E-02    1 
 5.000000E-01  5.000000E-01  1.625000E-01  0.000000E+00  0.000000E+00 -8.630654E-02    1 
 5.000000E-01  5.000000E-01  1.875000E-01  0.000000E+00  0.000000E+00 -8.630680E-02    1 
 5.000000E-01  5.000000E-01  2.125000E-01  0.000000E+00  0.000000E+00 -8.630709E-02    1 
 5.000000E-01  5.000000E-01  2.375000E-01  0.000000E+00  0.000000E+00 -8.630742E-02    1 
 5.000000E-01  5.000000E-01  2.625000E-01  0.000000E+00  0.000000E+00 -8.630779E-02    1 
 5.000000E-01  5.000000E-01  2.875000E-01  0.000000E+00  0.000000E+00 -8.630819E-02    1 
 5.000000E-01  5.000000E-01  3.125000E-01  0.000000E+00  0.000000E+00 -8.630863E-02    1 
 5.000000E-01  5.000000E-01  3.375000E-01  0.000000E+00  0.000000E+00 -8.630910E-02    1 
 5.000000E-01  5.000000E-01  3.625000E-01  0.000000E+00  0.000000E+00 -8.630960E-02    1 
 5.000000E-01  5.000000E-01  3.875000E-01  0.000000E+00  0.000000E+00 -8.631014E-02    1 
 5.000000E-01  5.000000E-01  4.125000E-01  0.000000E+00  0.000000E+00 -8.631072E-02    1 
 5.000000E-01  5.000000E-01  4.375000E-01  0.000000E+00  0.000000E+00 -8.631133E-02    1 
 5.000000E-01  5.000000E-01  4.625000E-01  0.000000E+00  0.000000E+00 -8.631197E-02    1 
 5.000000E-01  5.000000E-01  4.875000E-01  0.000000E+00  0.000000E+00 -8.631265E-02    1 
 5.000000E-01  5.000000E-01  5.125000E-01  0.000000E+00  0.000000E+00 -8.631336E-02    1 
 5.000000E-01  5.000000E-01  5.375000E-01  0.000000E+00  0.000000E+00 -8.631411E-02    1 
 5.000000E-01  5.000000E-01  5.625000E-01  0.000000E+00  0.000000E+00 -8.631488E-02    1 
 5.000000E-01  5.000000E-01  5.875000E-01  0.000000E+00  0.000000E+00 -8.631569E-02    1 
 5.000000E-01  5.000000E-01  6.125000E-01  0.000000E+00  0.000000E+00 -8.631653E-02    1 
 5.000000E-01  5.000000E-01  6.375000E-01  0.000000E+00  0.000000E+00 -8.631741E-02    1 
 5.000000E-01  5.000000E-01  6.625000E-01  0.000000E+00  0.000000E+00 -8.631831E-02    1 
 5.000000E-01  5.000000E-01  6.875000E-01  0.000000E+00  0.000000E+00 -8.631925E-02    1 
 5.000000E-01  5.000000E-01  7.125000E-01  0.000000E+00  0.000000E+00 -8.632022E-02    1 
 5.000000E-01  5.000000E-01  7.375000E-01  0.000000E+00  0.000000E+00 -8.632122E-02    1 
 5.000000E-01  5.000000E-01  7.625000E-01  0.000000E+00  0.000000E+00 -8.632225E-02    1 
 5.000000E-01  5.000000E-01  7.875000E-01  0.000000E+00  0.000000E+00 -8.632331E-02    1 
 5.000000E-01  5.000000E-01  8.125000E-01  0.000000E+00  0.000000E+00 -8.632439E-02    1 
 5.000000E-01  5.000000E-01  8.375000E-01  0.000000E+00  0.000000E+00 -8.632551E-02    1 
 5.000000E-01  5.000000E-01  8.625000E-01  0.000000E+00  0.000000E+00 -8.632666E-02    1 
 5.000000E-01  5.000000E-01  8.875000E-01  0.000000E+00  0.000000E+00 -8.632783E-02    1 
 5.000000E-01  5.000000E-01  9.125000E-01  0.000000E+00  0.000000E+00 -8.632903E-02    1 
 5.000000E-01  5.000000E-01  9.375000E-01  0.000000E+00  0.000000E+00 -8.633026E-02    1 
 5.000000E-01  5.000000E-01  9.625000E-01  0.000000E+00  0.000000E+00 -8.633152E-02    1 
 5.000000E-01  5.000000E-01  9.875000E-01  0.000000E+00  0.000000E+00 -8.633280E-02    1 
 5.000000E-01  5.000000E-01  1.012500E+00  0.000000E+00  0.000000E+00 -8.633411E-02    1 
 5.000000E-01  5.000000E-01  1.037500E+00  0.000000E+00  0.000000E+00 -8.633544E-02    1 
 5.000000E-01  5.000000E-01  1.062500E+00  0.000000E+00  0.000000E+00 -8.633680E-02    1 
 5.000000E-01  5.000000E-01  1.087500E+00  0.000000E+00  0.000000E+00 -8.633818E-02    1 
 5.000000E-01  5.000000E-01  1.112500E+00  0.000000E+00  0.000000E+00 -8.633959E-02    1 
 5.000000E-01  5.000000E-01  1.137500E+00  0.000000E+00  0.000000E+00 -8.634101E-02    1 
 5.000000E-01  5.000000E-01  1.162500E+00  0.000000E+00  0.000000E+00 -8.634247E-02    1 
 5.000000E-01  5.000000E-01  1.187500E+00  0.000000E+00  0.000000E+00 -8.634394E-02    1 
 5.000000E-01  5.000000E-01  1.212500E+00  0.000000E+00  0.000000E+00 -8.634544E-02    1 
 5.000000E-01  5.000000E-01  1.237500E+00  0.000000E+00  0.000000E+00 -8.634695E-02    1 
 5.000000E-01  5.000000E-01  1.262500E+00  0.000000E+00  0.000000E+00 -8.634849E-02    1 
 5.000000E-01  5.000000E-01  1.287500E+00  0.000000E+00  0.000000E+00 -8.635005E-02    1 
 5.000000E-01  5.000000E-01  1.312500E+00  0.000000E+00  0.000000E+00 -8.635162E-02    1 
 5.000000E-01  5.000000E-01  1.337500E+00  0.000000E+00  0.000000E+00 -8.635322E-02    1 
 5.000000E-01  5.000000E-01  1.362500E+00  0.000000E+00  0.000000E+00 -8.635483E-02    1 
 5.000000E-01  5.000000E-01  1.387500E+00  0.000000E+00  0.000000E+00 -8.635646E-02    1 
 5.000000E-01  5.000000E-01  1.412500E+00  0.000000E+00  0.000000E+00 -8.635811E-02    1 
 5.000000E-01  5.000000E-01  1.437500E+00  0.000000E+00  0.000000E+00 -8.635977E-02    1 
 5.000000E-01  5.000000E-01  1.462500E+00  0.000000E+00  0.000000E+00 -8.636145E-02    1 
 5.000000E-01  5.000000E-01  1.487500E+00  0.000000E+00  0.000000E+00 -8.636314E-02    1 
 5.000000E-01  5.000000E-01  1.512500E+00  0.000000E+00  0.000000E+00 -8.636485E-02    1 
 5.000000E-01  5.000000E-01  1.537500E+00  0.000000E+00  0.000000E+00 -8.636657E-02    1 
 5.000000E-01  5.000000E-01  1.562500E+00  0.000000E+00  0.000000E+00 -8.636830E-02    1 
 5.000000E-01  5.000000E-01  1.587500E+00  0.000000E+00  0.000000E+00 -8.637005E-02    1 
 5.000000E-01  5.000000E-01  1.612500E+00  0.000000E+00  0.000000E+00 -8.637180E-02    1 
 5.000000E-01  5.000000E-01  1.637500E+00  0.000000E+00  0.000000E+00 -8.637357E-02    1 
 5.000000E-01  5.000000E-01  1.662500E+00  0.000000E+00  0.000000E+00 -8.637535E-02    1 
 5.000000E-01  5.000000E-01  1.687500E+00  0.000000E+00  0.000000E+00 -8.637714E-02    1 
 5.000000E-01  5.000000E-01  1.712500E+00  0.000000E+00  0.000000E+00 -8.637894E-02    1 
 5.000000E-01  5.000000E-01  1.737500E+00  0.000000E+00  0.000000E+00 -8.638074E-02    1 
 5.000000E-01  5.000000E-01  1.762500E+00  0.000000E+00  0.000000E+00 -8.638255E-02    1 
 5.000000E-01  5.000000E-01  1.787500E+00  0.000000E+00  0.000000E+00 -8.638437E-02    1 
 5.000000E-01  5.000000E-01  1.812500E+00  0.000000E+00  0.000000E+00 -8.638620E-02    1 
 5.000000E-01  5.000000E-01  1.837500E+00  0.000000E+00  0.000000E+00 -8.638803E-02    1 
 5.000000E-01  5.000000E-01  1.862500E+00  0.000000E+00  0.000000E+00 -8.638986E-02    1 
 5.000000E-01  5.000000E-01  1.887500E+00  0.000000E+00  0.000000E+00 -8.639170E-02    1 
 5.000000E-01  5.000000E-01  1.912500E+00  0.000000E+00  0.000000E+00 -8.639354E-02    1 
 5.000000E-01  5.000000E-01  1.937500E+00  0.000000E+00  0.000000E+00 -8.639539E-02    1 
 5.000000E-01  5.000000E-01  1.962500E+00  0.000000E+00  0.000000E+00 -8.639723E-02    1 
 5.000000E-01  5.000000E-01  1.987500E+00  0.000000E+00  0.000000E+00 -8.639908E-02    1 
