TITLE = "   1.1840E-02 [d]"
VARIABLES="X [m]","Y [m]","Z [m]","qlx [m/day]","qly [m/day]","qlz [m/day]","Material_ID"
ZONE T= "  1.18403E-02", I=    1, J=    1, K=   80, DATAPACKING=POINT
 5.000000E-01  5.000000E-01  1.250000E-02  0.000000E+00  0.000000E+00 -3.589668E-09    1 
 5.000000E-01  5.000000E-01  3.750000E-02  0.000000E+00  0.000000E+00 -6.670105E-09    1 
 5.000000E-01  5.000000E-01  6.250000E-02  0.000000E+00  0.000000E+00 -1.320606E-08    1 
 5.000000E-01  5.000000E-01  8.750000E-02  0.000000E+00  0.000000E+00 -1.969246E-08    1 
 5.000000E-01  5.000000E-01  1.125000E-01  0.000000E+00  0.000000E+00 -2.475300E-08    1 
 5.000000E-01  5.000000E-01  1.375000E-01  0.000000E+00  0.000000E+00 -2.765380E-08    1 
 5.000000E-01  5.000000E-01  1.625000E-01  0.000000E+00  0.000000E+00 -2.844600E-08    1 
 5.000000E-01  5.000000E-01  1.875000E-01  0.000000E+00  0.000000E+00 -2.768940E-08    1 
 5.000000E-01  5.000000E-01  2.125000E-01  0.000000E+00  0.000000E+00 -2.604359E-08    1 
 5.000000E-01  5.000000E-01  2.375000E-01  0.000000E+00  0.000000E+00 -2.402285E-08    1 
 5.000000E-01  5.000000E-01  2.625000E-01  0.000000E+00  0.000000E+00 -2.194288E-08    1 
 5.000000E-01  5.000000E-01  2.875000E-01  0.000000E+00  0.000000E+00 -1.996041E-08    1 
 5.000000E-01  5.000000E-01  3.125000E-01  0.000000E+00  0.000000E+00 -1.813331E-08    1 
 5.000000E-01  5.000000E-01  3.375000E-01  0.000000E+00  0.000000E+00 -1.647652E-08    1 
 5.000000E-01  5.000000E-01  3.625000E-01  0.000000E+00  0.000000E+00 -1.499003E-08    1 
 5.000000E-01  5.000000E-01  3.875000E-01  0.000000E+00  0.000000E+00 -1.366263E-08    1 
 5.000000E-01  5.000000E-01  4.125000E-01  0.000000E+00  0.000000E+00 -1.247530E-08    1 
 5.000000E-01  5.000000E-01  4.375000E-01  0.000000E+00  0.000000E+00 -1.141198E-08    1 
 5.000000E-01  5.000000E-01  4.625000E-01  0.000000E+00  0.000000E+00 -1.046211E-08    1 
 5.000000E-01  5.000000E-01  4.875000E-01  0.000000E+00  0.000000E+00 -9.613472E-09    1 
 5.000000E-01  5.000000E-01  5.125000E-01  0.000000E+00  0.000000E+00 -8.851385E-09    1 
 5.000000E-01  5.000000E-01  5.375000E-01  0.000000E+00  0.000000E+00 -8.164868E-09    1 
 5.000000E-01  5.000000E-01  5.625000E-01  0.000000E+00  0.000000E+00 -7.547642E-09    1 
 5.000000E-01  5.000000E-01  5.875000E-01  0.000000E+00  0.000000E+00 -6.992228E-09    1 
 5.000000E-01  5.000000E-01  6.125000E-01  0.000000E+00  0.000000E+00 -6.489447E-09    1 
 5.000000E-01  5.000000E-01  6.375000E-01  0.000000E+00  0.000000E+00 -6.032727E-09    1 
 5.000000E-01  5.000000E-01  6.625000E-01  0.000000E+00  0.000000E+00 -5.618793E-09    1 
 5.000000E-01  5.000000E-01  6.875000E-01  0.000000E+00  0.000000E+00 -5.243293E-09    1 
 5.000000E-01  5.000000E-01  7.125000E-01  0.000000E+00  0.000000E+00 -4.900552E-09    1 
 5.000000E-01  5.000000E-01  7.375000E-01  0.000000E+00  0.000000E+00 -4.586638E-09    1 
 5.000000E-01  5.000000E-01  7.625000E-01  0.000000E+00  0.000000E+00 -4.299912E-09    1 
 5.000000E-01  5.000000E-01  7.875000E-01  0.000000E+00  0.000000E+00 -4.037817E-09    1 
 5.000000E-01  5.000000E-01  8.125000E-01  0.000000E+00  0.000000E+00 -3.796756E-09    1 
 5.000000E-01  5.000000E-01  8.375000E-01  0.000000E+00  0.000000E+00 -3.574316E-09    1 
 5.000000E-01  5.000000E-01  8.625000E-01  0.000000E+00  0.000000E+00 -3.369705E-09    1 
 5.000000E-01  5.000000E-01  8.875000E-01  0.000000E+00  0.000000E+00 -3.181386E-09    1 
 5.000000E-01  5.000000E-01  9.125000E-01  0.000000E+00  0.000000E+00 -3.007001E-09    1 
 5.000000E-01  5.000000E-01  9.375000E-01  0.000000E+00  0.000000E+00 -2.845022E-09    1 
 5.000000E-01  5.000000E-01  9.625000E-01  0.000000E+00  0.000000E+00 -2.695093E-09    1 
 5.000000E-01  5.000000E-01  9.875000E-01  0.000000E+00  0.000000E+00 -2.556266E-09    1 
 5.000000E-01  5.000000E-01  1.012500E+00  0.000000E+00  0.000000E+00 -2.426941E-09    1 
 5.000000E-01  5.000000E-01  1.037500E+00  0.000000E+00  0.000000E+00 -2.306120E-09    1 
 5.000000E-01  5.000000E-01  1.062500E+00  0.000000E+00  0.000000E+00 -2.193671E-09    1 
 5.000000E-01  5.000000E-01  1.087500E+00  0.000000E+00  0.000000E+00 -2.088993E-09    1 
 5.000000E-01  5.000000E-01  1.112500E+00  0.000000E+00  0.000000E+00 -1.990970E-09    1 
 5.000000E-01  5.000000E-01  1.137500E+00  0.000000E+00  0.000000E+00 -1.898925E-09    1 
 5.000000E-01  5.000000E-01  1.162500E+00  0.000000E+00  0.000000E+00 -1.812845E-09    1 
 5.000000E-01  5.000000E-01  1.187500E+00  0.000000E+00  0.000000E+00 -1.732337E-09    1 
 5.000000E-01  5.000000E-01  1.212500E+00  0.000000E+00  0.000000E+00 -1.656600E-09    1 
 5.000000E-01  5.000000E-01  1.237500E+00  0.000000E+00  0.000000E+00 -1.585165E-09    1 
 5.000000E-01  5.000000E-01  1.262500E+00  0.000000E+00  0.000000E+00 -1.518072E-09    1 
 5.000000E-01  5.000000E-01  1.287500E+00  0.000000E+00  0.000000E+00 -1.455064E-09    1 
 5.000000E-01  5.000000E-01  1.312500E+00  0.000000E+00  0.000000E+00 -1.395547E-09    1 
 5.000000E-01  5.000000E-01  1.337500E+00  0.000000E+00  0.000000E+00 -1.339190E-09    1 
 5.000000E-01  5.000000E-01  1.362500E+00  0.000000E+00  0.000000E+00 -1.286058E-09    1 
 5.000000E-01  5.000000E-01  1.387500E+00  0.000000E+00  0.000000E+00 -1.235979E-09    1 
 5.000000E-01  5.000000E-01  1.412500E+00  0.000000E+00  0.000000E+00 -1.188504E-09    1 
 5.000000E-01  5.000000E-01  1.437500E+00  0.000000E+00  0.000000E+00 -1.143391E-09    1 
 5.000000E-01  5.000000E-01  1.462500E+00  0.000000E+00  0.000000E+00 -1.100717E-09    1 
 5.000000E-01  5.000000E-01  1.487500E+00  0.000000E+00  0.000000E+00 -1.060362E-09    1 
 5.000000E-01  5.000000E-01  1.512500E+00  0.000000E+00  0.000000E+00 -1.021984E-09    1 
 5.000000E-01  5.000000E-01  1.537500E+00  0.000000E+00  0.000000E+00 -9.854014E-10    1 
 5.000000E-01  5.000000E-01  1.562500E+00  0.000000E+00  0.000000E+00 -9.506921E-10    1 
 5.000000E-01  5.000000E-01  1.587500E+00  0.000000E+00  0.000000E+00 -9.177738E-10    1 
 5.000000E-01  5.000000E-01  1.612500E+00  0.000000E+00  0.000000E+00 -8.863769E-10    1 
 5.000000E-01  5.000000E-01  1.637500E+00  0.000000E+00  0.000000E+00 -8.563654E-10    1 
 5.000000E-01  5.000000E-01  1.662500E+00  0.000000E+00  0.000000E+00 -8.278136E-10    1 
 5.000000E-01  5.000000E-01  1.687500E+00  0.000000E+00  0.000000E+00 -8.006640E-10    1 
 5.000000E-01  5.000000E-01  1.712500E+00  0.000000E+00  0.000000E+00 -7.747020E-10    1 
 5.000000E-01  5.000000E-01  1.737500E+00  0.000000E+00  0.000000E+00 -7.498230E-10    1 
 5.000000E-01  5.000000E-01  1.762500E+00  0.000000E+00  0.000000E+00 -7.260964E-10    1 
 5.000000E-01  5.000000E-01  1.787500E+00  0.000000E+00  0.000000E+00 -7.034813E-10    1 
 5.000000E-01  5.000000E-01  1.812500E+00  0.000000E+00  0.000000E+00 -6.818048E-10    1 
 5.000000E-01  5.000000E-01  1.837500E+00  0.000000E+00  0.000000E+00 -6.609852E-10    1 
 5.000000E-01  5.000000E-01  1.862500E+00  0.000000E+00  0.000000E+00 -6.410859E-10    1 
 5.000000E-01  5.000000E-01  1.887500E+00  0.000000E+00  0.000000E+00 -6.220779E-10    1 
 5.000000E-01  5.000000E-01  1.912500E+00  0.000000E+00  0.000000E+00 -6.038156E-10    1 
 5.000000E-01  5.000000E-01  1.937500E+00  0.000000E+00  0.000000E+00 -5.860204E-10    1 
 5.000000E-01  5.000000E-01  1.962500E+00  0.000000E+00  0.000000E+00 -5.598137E-10    1 
 5.000000E-01  5.000000E-01  1.987500E+00  0.000000E+00  0.000000E+00 -5.424138E-10    1 
