TITLE = "   2.3692E-02 [d]"
VARIABLES="X [m]","Y [m]","Z [m]","qlx [m/day]","qly [m/day]","qlz [m/day]","Material_ID"
ZONE T= "  2.36921E-02", I=    1, J=    1, K=   80, DATAPACKING=POINT
 5.000000E-01  5.000000E-01  1.250000E-02  0.000000E+00  0.000000E+00 -2.566629E-09    1 
 5.000000E-01  5.000000E-01  3.750000E-02  0.000000E+00  0.000000E+00 -4.797500E-09    1 
 5.000000E-01  5.000000E-01  6.250000E-02  0.000000E+00  0.000000E+00 -9.653855E-09    1 
 5.000000E-01  5.000000E-01  8.750000E-02  0.000000E+00  0.000000E+00 -1.484534E-08    1 
 5.000000E-01  5.000000E-01  1.125000E-01  0.000000E+00  0.000000E+00 -1.951381E-08    1 
 5.000000E-01  5.000000E-01  1.375000E-01  0.000000E+00  0.000000E+00 -2.299005E-08    1 
 5.000000E-01  5.000000E-01  1.625000E-01  0.000000E+00  0.000000E+00 -2.494796E-08    1 
 5.000000E-01  5.000000E-01  1.875000E-01  0.000000E+00  0.000000E+00 -2.544478E-08    1 
 5.000000E-01  5.000000E-01  2.125000E-01  0.000000E+00  0.000000E+00 -2.480601E-08    1 
 5.000000E-01  5.000000E-01  2.375000E-01  0.000000E+00  0.000000E+00 -2.344722E-08    1 
 5.000000E-01  5.000000E-01  2.625000E-01  0.000000E+00  0.000000E+00 -2.173512E-08    1 
 5.000000E-01  5.000000E-01  2.875000E-01  0.000000E+00  0.000000E+00 -1.992626E-08    1 
 5.000000E-01  5.000000E-01  3.125000E-01  0.000000E+00  0.000000E+00 -1.816834E-08    1 
 5.000000E-01  5.000000E-01  3.375000E-01  0.000000E+00  0.000000E+00 -1.653266E-08    1 
 5.000000E-01  5.000000E-01  3.625000E-01  0.000000E+00  0.000000E+00 -1.504604E-08    1 
 5.000000E-01  5.000000E-01  3.875000E-01  0.000000E+00  0.000000E+00 -1.371034E-08    1 
 5.000000E-01  5.000000E-01  4.125000E-01  0.000000E+00  0.000000E+00 -1.251437E-08    1 
 5.000000E-01  5.000000E-01  4.375000E-01  0.000000E+00  0.000000E+00 -1.144448E-08    1 
 5.000000E-01  5.000000E-01  4.625000E-01  0.000000E+00  0.000000E+00 -1.048860E-08    1 
 5.000000E-01  5.000000E-01  4.875000E-01  0.000000E+00  0.000000E+00 -9.634226E-09    1 
 5.000000E-01  5.000000E-01  5.125000E-01  0.000000E+00  0.000000E+00 -8.867919E-09    1 
 5.000000E-01  5.000000E-01  5.375000E-01  0.000000E+00  0.000000E+00 -8.178791E-09    1 
 5.000000E-01  5.000000E-01  5.625000E-01  0.000000E+00  0.000000E+00 -7.559145E-09    1 
 5.000000E-01  5.000000E-01  5.875000E-01  0.000000E+00  0.000000E+00 -7.001276E-09    1 
 5.000000E-01  5.000000E-01  6.125000E-01  0.000000E+00  0.000000E+00 -6.496749E-09    1 
 5.000000E-01  5.000000E-01  6.375000E-01  0.000000E+00  0.000000E+00 -6.039078E-09    1 
 5.000000E-01  5.000000E-01  6.625000E-01  0.000000E+00  0.000000E+00 -5.624150E-09    1 
 5.000000E-01  5.000000E-01  6.875000E-01  0.000000E+00  0.000000E+00 -5.247534E-09    1 
 5.000000E-01  5.000000E-01  7.125000E-01  0.000000E+00  0.000000E+00 -4.904020E-09    1 
 5.000000E-01  5.000000E-01  7.375000E-01  0.000000E+00  0.000000E+00 -4.589754E-09    1 
 5.000000E-01  5.000000E-01  7.625000E-01  0.000000E+00  0.000000E+00 -4.302591E-09    1 
 5.000000E-01  5.000000E-01  7.875000E-01  0.000000E+00  0.000000E+00 -4.039947E-09    1 
 5.000000E-01  5.000000E-01  8.125000E-01  0.000000E+00  0.000000E+00 -3.798517E-09    1 
 5.000000E-01  5.000000E-01  8.375000E-01  0.000000E+00  0.000000E+00 -3.575947E-09    1 
 5.000000E-01  5.000000E-01  8.625000E-01  0.000000E+00  0.000000E+00 -3.371130E-09    1 
 5.000000E-01  5.000000E-01  8.875000E-01  0.000000E+00  0.000000E+00 -3.182522E-09    1 
 5.000000E-01  5.000000E-01  9.125000E-01  0.000000E+00  0.000000E+00 -3.007949E-09    1 
 5.000000E-01  5.000000E-01  9.375000E-01  0.000000E+00  0.000000E+00 -2.845925E-09    1 
 5.000000E-01  5.000000E-01  9.625000E-01  0.000000E+00  0.000000E+00 -2.695894E-09    1 
 5.000000E-01  5.000000E-01  9.875000E-01  0.000000E+00  0.000000E+00 -2.556903E-09    1 
 5.000000E-01  5.000000E-01  1.012500E+00  0.000000E+00  0.000000E+00 -2.427477E-09    1 
 5.000000E-01  5.000000E-01  1.037500E+00  0.000000E+00  0.000000E+00 -2.306644E-09    1 
 5.000000E-01  5.000000E-01  1.062500E+00  0.000000E+00  0.000000E+00 -2.194141E-09    1 
 5.000000E-01  5.000000E-01  1.087500E+00  0.000000E+00  0.000000E+00 -2.089368E-09    1 
 5.000000E-01  5.000000E-01  1.112500E+00  0.000000E+00  0.000000E+00 -1.991287E-09    1 
 5.000000E-01  5.000000E-01  1.137500E+00  0.000000E+00  0.000000E+00 -1.899243E-09    1 
 5.000000E-01  5.000000E-01  1.162500E+00  0.000000E+00  0.000000E+00 -1.813133E-09    1 
 5.000000E-01  5.000000E-01  1.187500E+00  0.000000E+00  0.000000E+00 -1.732566E-09    1 
 5.000000E-01  5.000000E-01  1.212500E+00  0.000000E+00  0.000000E+00 -1.656794E-09    1 
 5.000000E-01  5.000000E-01  1.237500E+00  0.000000E+00  0.000000E+00 -1.585364E-09    1 
 5.000000E-01  5.000000E-01  1.262500E+00  0.000000E+00  0.000000E+00 -1.518254E-09    1 
 5.000000E-01  5.000000E-01  1.287500E+00  0.000000E+00  0.000000E+00 -1.455208E-09    1 
 5.000000E-01  5.000000E-01  1.312500E+00  0.000000E+00  0.000000E+00 -1.395671E-09    1 
 5.000000E-01  5.000000E-01  1.337500E+00  0.000000E+00  0.000000E+00 -1.339319E-09    1 
 5.000000E-01  5.000000E-01  1.362500E+00  0.000000E+00  0.000000E+00 -1.286178E-09    1 
 5.000000E-01  5.000000E-01  1.387500E+00  0.000000E+00  0.000000E+00 -1.236073E-09    1 
 5.000000E-01  5.000000E-01  1.412500E+00  0.000000E+00  0.000000E+00 -1.188584E-09    1 
 5.000000E-01  5.000000E-01  1.437500E+00  0.000000E+00  0.000000E+00 -1.143476E-09    1 
 5.000000E-01  5.000000E-01  1.462500E+00  0.000000E+00  0.000000E+00 -1.100797E-09    1 
 5.000000E-01  5.000000E-01  1.487500E+00  0.000000E+00  0.000000E+00 -1.060425E-09    1 
 5.000000E-01  5.000000E-01  1.512500E+00  0.000000E+00  0.000000E+00 -1.022038E-09    1 
 5.000000E-01  5.000000E-01  1.537500E+00  0.000000E+00  0.000000E+00 -9.854598E-10    1 
 5.000000E-01  5.000000E-01  1.562500E+00  0.000000E+00  0.000000E+00 -9.507472E-10    1 
 5.000000E-01  5.000000E-01  1.587500E+00  0.000000E+00  0.000000E+00 -9.178165E-10    1 
 5.000000E-01  5.000000E-01  1.612500E+00  0.000000E+00  0.000000E+00 -8.864136E-10    1 
 5.000000E-01  5.000000E-01  1.637500E+00  0.000000E+00  0.000000E+00 -8.564061E-10    1 
 5.000000E-01  5.000000E-01  1.662500E+00  0.000000E+00  0.000000E+00 -8.278523E-10    1 
 5.000000E-01  5.000000E-01  1.687500E+00  0.000000E+00  0.000000E+00 -8.006938E-10    1 
 5.000000E-01  5.000000E-01  1.712500E+00  0.000000E+00  0.000000E+00 -7.747276E-10    1 
 5.000000E-01  5.000000E-01  1.737500E+00  0.000000E+00  0.000000E+00 -7.498520E-10    1 
 5.000000E-01  5.000000E-01  1.762500E+00  0.000000E+00  0.000000E+00 -7.261240E-10    1 
 5.000000E-01  5.000000E-01  1.787500E+00  0.000000E+00  0.000000E+00 -7.035024E-10    1 
 5.000000E-01  5.000000E-01  1.812500E+00  0.000000E+00  0.000000E+00 -6.818230E-10    1 
 5.000000E-01  5.000000E-01  1.837500E+00  0.000000E+00  0.000000E+00 -6.610062E-10    1 
 5.000000E-01  5.000000E-01  1.862500E+00  0.000000E+00  0.000000E+00 -6.411060E-10    1 
 5.000000E-01  5.000000E-01  1.887500E+00  0.000000E+00  0.000000E+00 -6.220920E-10    1 
 5.000000E-01  5.000000E-01  1.912500E+00  0.000000E+00  0.000000E+00 -6.037988E-10    1 
 5.000000E-01  5.000000E-01  1.937500E+00  0.000000E+00  0.000000E+00 -5.854031E-10    1 
 5.000000E-01  5.000000E-01  1.962500E+00  0.000000E+00  0.000000E+00 -5.506425E-10    1 
 5.000000E-01  5.000000E-01  1.987500E+00  0.000000E+00  0.000000E+00 -5.252651E-10    1 
