TITLE = "   1.4699E-03 [d]"
VARIABLES="X [m]","Y [m]","Z [m]","qlx [m/day]","qly [m/day]","qlz [m/day]","Material_ID"
ZONE T= "  1.46991E-03", I=    1, J=    1, K=   80, DATAPACKING=POINT
 5.000000E-01  5.000000E-01  1.250000E-02  0.000000E+00  0.000000E+00 -8.786775E-09    1 
 5.000000E-01  5.000000E-01  3.750000E-02  0.000000E+00  0.000000E+00 -1.520072E-08    1 
 5.000000E-01  5.000000E-01  6.250000E-02  0.000000E+00  0.000000E+00 -2.613631E-08    1 
 5.000000E-01  5.000000E-01  8.750000E-02  0.000000E+00  0.000000E+00 -3.242523E-08    1 
 5.000000E-01  5.000000E-01  1.125000E-01  0.000000E+00  0.000000E+00 -3.415910E-08    1 
 5.000000E-01  5.000000E-01  1.375000E-01  0.000000E+00  0.000000E+00 -3.328352E-08    1 
 5.000000E-01  5.000000E-01  1.625000E-01  0.000000E+00  0.000000E+00 -3.129390E-08    1 
 5.000000E-01  5.000000E-01  1.875000E-01  0.000000E+00  0.000000E+00 -2.892766E-08    1 
 5.000000E-01  5.000000E-01  2.125000E-01  0.000000E+00  0.000000E+00 -2.648354E-08    1 
 5.000000E-01  5.000000E-01  2.375000E-01  0.000000E+00  0.000000E+00 -2.410847E-08    1 
 5.000000E-01  5.000000E-01  2.625000E-01  0.000000E+00  0.000000E+00 -2.190130E-08    1 
 5.000000E-01  5.000000E-01  2.875000E-01  0.000000E+00  0.000000E+00 -1.989103E-08    1 
 5.000000E-01  5.000000E-01  3.125000E-01  0.000000E+00  0.000000E+00 -1.806471E-08    1 
 5.000000E-01  5.000000E-01  3.375000E-01  0.000000E+00  0.000000E+00 -1.641169E-08    1 
 5.000000E-01  5.000000E-01  3.625000E-01  0.000000E+00  0.000000E+00 -1.493532E-08    1 
 5.000000E-01  5.000000E-01  3.875000E-01  0.000000E+00  0.000000E+00 -1.362073E-08    1 
 5.000000E-01  5.000000E-01  4.125000E-01  0.000000E+00  0.000000E+00 -1.244255E-08    1 
 5.000000E-01  5.000000E-01  4.375000E-01  0.000000E+00  0.000000E+00 -1.138357E-08    1 
 5.000000E-01  5.000000E-01  4.625000E-01  0.000000E+00  0.000000E+00 -1.043887E-08    1 
 5.000000E-01  5.000000E-01  4.875000E-01  0.000000E+00  0.000000E+00 -9.595898E-09    1 
 5.000000E-01  5.000000E-01  5.125000E-01  0.000000E+00  0.000000E+00 -8.837628E-09    1 
 5.000000E-01  5.000000E-01  5.375000E-01  0.000000E+00  0.000000E+00 -8.152665E-09    1 
 5.000000E-01  5.000000E-01  5.625000E-01  0.000000E+00  0.000000E+00 -7.537511E-09    1 
 5.000000E-01  5.000000E-01  5.875000E-01  0.000000E+00  0.000000E+00 -6.984510E-09    1 
 5.000000E-01  5.000000E-01  6.125000E-01  0.000000E+00  0.000000E+00 -6.483322E-09    1 
 5.000000E-01  5.000000E-01  6.375000E-01  0.000000E+00  0.000000E+00 -6.027127E-09    1 
 5.000000E-01  5.000000E-01  6.625000E-01  0.000000E+00  0.000000E+00 -5.614056E-09    1 
 5.000000E-01  5.000000E-01  6.875000E-01  0.000000E+00  0.000000E+00 -5.239657E-09    1 
 5.000000E-01  5.000000E-01  7.125000E-01  0.000000E+00  0.000000E+00 -4.897625E-09    1 
 5.000000E-01  5.000000E-01  7.375000E-01  0.000000E+00  0.000000E+00 -4.583882E-09    1 
 5.000000E-01  5.000000E-01  7.625000E-01  0.000000E+00  0.000000E+00 -4.297539E-09    1 
 5.000000E-01  5.000000E-01  7.875000E-01  0.000000E+00  0.000000E+00 -4.035985E-09    1 
 5.000000E-01  5.000000E-01  8.125000E-01  0.000000E+00  0.000000E+00 -3.795264E-09    1 
 5.000000E-01  5.000000E-01  8.375000E-01  0.000000E+00  0.000000E+00 -3.572871E-09    1 
 5.000000E-01  5.000000E-01  8.625000E-01  0.000000E+00  0.000000E+00 -3.368441E-09    1 
 5.000000E-01  5.000000E-01  8.875000E-01  0.000000E+00  0.000000E+00 -3.180407E-09    1 
 5.000000E-01  5.000000E-01  9.125000E-01  0.000000E+00  0.000000E+00 -3.006196E-09    1 
 5.000000E-01  5.000000E-01  9.375000E-01  0.000000E+00  0.000000E+00 -2.844222E-09    1 
 5.000000E-01  5.000000E-01  9.625000E-01  0.000000E+00  0.000000E+00 -2.694383E-09    1 
 5.000000E-01  5.000000E-01  9.875000E-01  0.000000E+00  0.000000E+00 -2.555715E-09    1 
 5.000000E-01  5.000000E-01  1.012500E+00  0.000000E+00  0.000000E+00 -2.426484E-09    1 
 5.000000E-01  5.000000E-01  1.037500E+00  0.000000E+00  0.000000E+00 -2.305655E-09    1 
 5.000000E-01  5.000000E-01  1.062500E+00  0.000000E+00  0.000000E+00 -2.193253E-09    1 
 5.000000E-01  5.000000E-01  1.087500E+00  0.000000E+00  0.000000E+00 -2.088670E-09    1 
 5.000000E-01  5.000000E-01  1.112500E+00  0.000000E+00  0.000000E+00 -1.990700E-09    1 
 5.000000E-01  5.000000E-01  1.137500E+00  0.000000E+00  0.000000E+00 -1.898644E-09    1 
 5.000000E-01  5.000000E-01  1.162500E+00  0.000000E+00  0.000000E+00 -1.812589E-09    1 
 5.000000E-01  5.000000E-01  1.187500E+00  0.000000E+00  0.000000E+00 -1.732140E-09    1 
 5.000000E-01  5.000000E-01  1.212500E+00  0.000000E+00  0.000000E+00 -1.656434E-09    1 
 5.000000E-01  5.000000E-01  1.237500E+00  0.000000E+00  0.000000E+00 -1.584988E-09    1 
 5.000000E-01  5.000000E-01  1.262500E+00  0.000000E+00  0.000000E+00 -1.517910E-09    1 
 5.000000E-01  5.000000E-01  1.287500E+00  0.000000E+00  0.000000E+00 -1.454939E-09    1 
 5.000000E-01  5.000000E-01  1.312500E+00  0.000000E+00  0.000000E+00 -1.395442E-09    1 
 5.000000E-01  5.000000E-01  1.337500E+00  0.000000E+00  0.000000E+00 -1.339076E-09    1 
 5.000000E-01  5.000000E-01  1.362500E+00  0.000000E+00  0.000000E+00 -1.285953E-09    1 
 5.000000E-01  5.000000E-01  1.387500E+00  0.000000E+00  0.000000E+00 -1.235897E-09    1 
 5.000000E-01  5.000000E-01  1.412500E+00  0.000000E+00  0.000000E+00 -1.188435E-09    1 
 5.000000E-01  5.000000E-01  1.437500E+00  0.000000E+00  0.000000E+00 -1.143315E-09    1 
 5.000000E-01  5.000000E-01  1.462500E+00  0.000000E+00  0.000000E+00 -1.100646E-09    1 
 5.000000E-01  5.000000E-01  1.487500E+00  0.000000E+00  0.000000E+00 -1.060308E-09    1 
 5.000000E-01  5.000000E-01  1.512500E+00  0.000000E+00  0.000000E+00 -1.021938E-09    1 
 5.000000E-01  5.000000E-01  1.537500E+00  0.000000E+00  0.000000E+00 -9.853497E-10    1 
 5.000000E-01  5.000000E-01  1.562500E+00  0.000000E+00  0.000000E+00 -9.506434E-10    1 
 5.000000E-01  5.000000E-01  1.587500E+00  0.000000E+00  0.000000E+00 -9.177367E-10    1 
 5.000000E-01  5.000000E-01  1.612500E+00  0.000000E+00  0.000000E+00 -8.863454E-10    1 
 5.000000E-01  5.000000E-01  1.637500E+00  0.000000E+00  0.000000E+00 -8.563294E-10    1 
 5.000000E-01  5.000000E-01  1.662500E+00  0.000000E+00  0.000000E+00 -8.277795E-10    1 
 5.000000E-01  5.000000E-01  1.687500E+00  0.000000E+00  0.000000E+00 -8.006381E-10    1 
 5.000000E-01  5.000000E-01  1.712500E+00  0.000000E+00  0.000000E+00 -7.746801E-10    1 
 5.000000E-01  5.000000E-01  1.737500E+00  0.000000E+00  0.000000E+00 -7.497975E-10    1 
 5.000000E-01  5.000000E-01  1.762500E+00  0.000000E+00  0.000000E+00 -7.260719E-10    1 
 5.000000E-01  5.000000E-01  1.787500E+00  0.000000E+00  0.000000E+00 -7.034629E-10    1 
 5.000000E-01  5.000000E-01  1.812500E+00  0.000000E+00  0.000000E+00 -6.817892E-10    1 
 5.000000E-01  5.000000E-01  1.837500E+00  0.000000E+00  0.000000E+00 -6.609667E-10    1 
 5.000000E-01  5.000000E-01  1.862500E+00  0.000000E+00  0.000000E+00 -6.410682E-10    1 
 5.000000E-01  5.000000E-01  1.887500E+00  0.000000E+00  0.000000E+00 -6.220647E-10    1 
 5.000000E-01  5.000000E-01  1.912500E+00  0.000000E+00  0.000000E+00 -6.038091E-10    1 
 5.000000E-01  5.000000E-01  1.937500E+00  0.000000E+00  0.000000E+00 -5.862308E-10    1 
 5.000000E-01  5.000000E-01  1.962500E+00  0.000000E+00  0.000000E+00 -5.681890E-10    1 
 5.000000E-01  5.000000E-01  1.987500E+00  0.000000E+00  0.000000E+00 -5.587379E-10    1 
