TITLE = "  1.00000E+00 [d]"
VARIABLES="X [m]","Y [m]","Z [m]","Liquid Pressure [Pa]","Liquid Saturation","Liquid Head [m]","Liquid Relative Permeability","Porosity","Permeability [m^2]","Material ID","Material ID"
ZONE T="1.00000E+00", STRANDID=1, SOLUTIONTIME=1.00000E+00, I=10, J=1, K=1, DATAPACKING=POINT
 5.000000E-02  5.000000E-01  1.000000E-01  9.276313E+04  5.500000E-01  9.485998E+00  2.045969E-03  4.300000E-01  4.551391E-13    1    1 
 1.500000E-01  5.000000E-01  1.000000E-01  9.276313E+04  5.500000E-01  9.485998E+00  2.045969E-03  4.300000E-01  4.551391E-13    1    1 
 2.500000E-01  5.000000E-01  1.000000E-01  9.276313E+04  5.500000E-01  9.485998E+00  2.045969E-03  4.300000E-01  4.551391E-13    1    1 
 3.500000E-01  5.000000E-01  1.000000E-01  9.276313E+04  5.500000E-01  9.485998E+00  2.045969E-03  4.300000E-01  4.551391E-13    1    1 
 4.500000E-01  5.000000E-01  1.000000E-01  9.276313E+04  5.500000E-01  9.485998E+00  2.045969E-03  4.300000E-01  4.551391E-13    1    1 
 5.500000E-01  5.000000E-01  1.000000E-01  9.276313E+04  5.500000E-01  9.485998E+00  2.045969E-03  4.300000E-01  4.551391E-13    1    1 
 6.500000E-01  5.000000E-01  1.000000E-01  9.276313E+04  5.500000E-01  9.485998E+00  2.045969E-03  4.300000E-01  4.551391E-13    1    1 
 7.500000E-01  5.000000E-01  1.000000E-01  9.276313E+04  5.500000E-01  9.485998E+00  2.045969E-03  4.300000E-01  4.551391E-13    1    1 
 8.500000E-01  5.000000E-01  1.000000E-01  9.276313E+04  5.500000E-01  9.485998E+00  2.045969E-03  4.300000E-01  4.551391E-13    1    1 
 9.500000E-01  5.000000E-01  1.000000E-01  9.276313E+04  5.500000E-01  9.485998E+00  2.045969E-03  4.300000E-01  4.551391E-13    1    1 
