TITLE = "   7.3400E-01 [d]"
VARIABLES="X [m]","Y [m]","Z [m]","qlx [m/day]","qly [m/day]","qlz [m/day]","Material_ID"
ZONE T= "  7.34000E-01", I=   10, J=    1, K=    1, DATAPACKING=POINT
 5.000000E-02  5.000000E-01  1.000000E-01  0.000000E+00  0.000000E+00  0.000000E+00    1 
 1.500000E-01  5.000000E-01  1.000000E-01  0.000000E+00  0.000000E+00  0.000000E+00    1 
 2.500000E-01  5.000000E-01  1.000000E-01  0.000000E+00  0.000000E+00  0.000000E+00    1 
 3.500000E-01  5.000000E-01  1.000000E-01  0.000000E+00  0.000000E+00  0.000000E+00    1 
 4.500000E-01  5.000000E-01  1.000000E-01  0.000000E+00  0.000000E+00  0.000000E+00    1 
 5.500000E-01  5.000000E-01  1.000000E-01  0.000000E+00  0.000000E+00  0.000000E+00    1 
 6.500000E-01  5.000000E-01  1.000000E-01  0.000000E+00  0.000000E+00  0.000000E+00    1 
 7.500000E-01  5.000000E-01  1.000000E-01  0.000000E+00  0.000000E+00  0.000000E+00    1 
 8.500000E-01  5.000000E-01  1.000000E-01  0.000000E+00  0.000000E+00  0.000000E+00    1 
 9.500000E-01  5.000000E-01  1.000000E-01  0.000000E+00  0.000000E+00  0.000000E+00    1 
