TITLE = "  2.74000E-01 [d]"
VARIABLES="X [m]","Y [m]","Z [m]","Liquid Pressure [Pa]","Liquid Saturation","Liquid Head [m]","Liquid Relative Permeability","Porosity","Permeability [m^2]","Material ID","Material ID"
ZONE T="2.74000E-01", STRANDID=1, SOLUTIONTIME=2.74000E-01, I=10, J=1, K=1, DATAPACKING=POINT
 5.000000E-02  5.000000E-01  1.000000E-01  9.434672E+04  5.947492E-01  9.647938E+00  3.778645E-03  4.300000E-01  4.551391E-13    1    1 
 1.500000E-01  5.000000E-01  1.000000E-01  9.434672E+04  5.947492E-01  9.647938E+00  3.778645E-03  4.300000E-01  4.551391E-13    1    1 
 2.500000E-01  5.000000E-01  1.000000E-01  9.434672E+04  5.947492E-01  9.647938E+00  3.778645E-03  4.300000E-01  4.551391E-13    1    1 
 3.500000E-01  5.000000E-01  1.000000E-01  9.434672E+04  5.947492E-01  9.647938E+00  3.778645E-03  4.300000E-01  4.551391E-13    1    1 
 4.500000E-01  5.000000E-01  1.000000E-01  9.434672E+04  5.947492E-01  9.647938E+00  3.778645E-03  4.300000E-01  4.551391E-13    1    1 
 5.500000E-01  5.000000E-01  1.000000E-01  9.434672E+04  5.947492E-01  9.647938E+00  3.778645E-03  4.300000E-01  4.551391E-13    1    1 
 6.500000E-01  5.000000E-01  1.000000E-01  9.434672E+04  5.947492E-01  9.647938E+00  3.778645E-03  4.300000E-01  4.551391E-13    1    1 
 7.500000E-01  5.000000E-01  1.000000E-01  9.434672E+04  5.947492E-01  9.647938E+00  3.778645E-03  4.300000E-01  4.551391E-13    1    1 
 8.500000E-01  5.000000E-01  1.000000E-01  9.434672E+04  5.947492E-01  9.647938E+00  3.778645E-03  4.300000E-01  4.551391E-13    1    1 
 9.500000E-01  5.000000E-01  1.000000E-01  9.434672E+04  5.947492E-01  9.647938E+00  3.778645E-03  4.300000E-01  4.551391E-13    1    1 
