TITLE = "  0.00000E+00 [d]"
VARIABLES="X [m]","Y [m]","Z [m]","Liquid Pressure [Pa]","Liquid Saturation","Material ID"
ZONE T="0.00000E+00", STRANDID=1, SOLUTIONTIME=0.00000E+00, I=1, J=1, K=80, DATAPACKING=POINT
 5.000000E-01  5.000000E-01  1.250000E-02  1.012028E+05  9.974657E-01    1 
 5.000000E-01  5.000000E-01  3.750000E-02  1.009583E+05  9.862672E-01    1 
 5.000000E-01  5.000000E-01  6.250000E-02  1.007138E+05  9.705587E-01    1 
 5.000000E-01  5.000000E-01  8.750000E-02  1.004693E+05  9.522356E-01    1 
 5.000000E-01  5.000000E-01  1.125000E-01  1.002249E+05  9.324578E-01    1 
 5.000000E-01  5.000000E-01  1.375000E-01  9.998039E+04  9.120134E-01    1 
 5.000000E-01  5.000000E-01  1.625000E-01  9.973592E+04  8.914453E-01    1 
 5.000000E-01  5.000000E-01  1.875000E-01  9.949145E+04  8.711223E-01    1 
 5.000000E-01  5.000000E-01  2.125000E-01  9.924697E+04  8.512879E-01    1 
 5.000000E-01  5.000000E-01  2.375000E-01  9.900250E+04  8.320959E-01    1 
 5.000000E-01  5.000000E-01  2.625000E-01  9.875803E+04  8.136364E-01    1 
 5.000000E-01  5.000000E-01  2.875000E-01  9.851355E+04  7.959549E-01    1 
 5.000000E-01  5.000000E-01  3.125000E-01  9.826908E+04  7.790662E-01    1 
 5.000000E-01  5.000000E-01  3.375000E-01  9.802461E+04  7.629644E-01    1 
 5.000000E-01  5.000000E-01  3.625000E-01  9.778013E+04  7.476301E-01    1 
 5.000000E-01  5.000000E-01  3.875000E-01  9.753566E+04  7.330352E-01    1 
 5.000000E-01  5.000000E-01  4.125000E-01  9.729119E+04  7.191467E-01    1 
 5.000000E-01  5.000000E-01  4.375000E-01  9.704671E+04  7.059290E-01    1 
 5.000000E-01  5.000000E-01  4.625000E-01  9.680224E+04  6.933456E-01    1 
 5.000000E-01  5.000000E-01  4.875000E-01  9.655777E+04  6.813600E-01    1 
 5.000000E-01  5.000000E-01  5.125000E-01  9.631329E+04  6.699370E-01    1 
 5.000000E-01  5.000000E-01  5.375000E-01  9.606882E+04  6.590425E-01    1 
 5.000000E-01  5.000000E-01  5.625000E-01  9.582435E+04  6.486443E-01    1 
 5.000000E-01  5.000000E-01  5.875000E-01  9.557987E+04  6.387117E-01    1 
 5.000000E-01  5.000000E-01  6.125000E-01  9.533540E+04  6.292162E-01    1 
 5.000000E-01  5.000000E-01  6.375000E-01  9.509093E+04  6.201309E-01    1 
 5.000000E-01  5.000000E-01  6.625000E-01  9.484645E+04  6.114307E-01    1 
 5.000000E-01  5.000000E-01  6.875000E-01  9.460198E+04  6.030925E-01    1 
 5.000000E-01  5.000000E-01  7.125000E-01  9.435751E+04  5.950944E-01    1 
 5.000000E-01  5.000000E-01  7.375000E-01  9.411303E+04  5.874163E-01    1 
 5.000000E-01  5.000000E-01  7.625000E-01  9.386856E+04  5.800395E-01    1 
 5.000000E-01  5.000000E-01  7.875000E-01  9.362409E+04  5.729465E-01    1 
 5.000000E-01  5.000000E-01  8.125000E-01  9.337962E+04  5.661211E-01    1 
 5.000000E-01  5.000000E-01  8.375000E-01  9.313514E+04  5.595484E-01    1 
 5.000000E-01  5.000000E-01  8.625000E-01  9.289067E+04  5.532142E-01    1 
 5.000000E-01  5.000000E-01  8.875000E-01  9.264620E+04  5.471056E-01    1 
 5.000000E-01  5.000000E-01  9.125000E-01  9.240172E+04  5.412104E-01    1 
 5.000000E-01  5.000000E-01  9.375000E-01  9.215725E+04  5.355174E-01    1 
 5.000000E-01  5.000000E-01  9.625000E-01  9.191278E+04  5.300160E-01    1 
 5.000000E-01  5.000000E-01  9.875000E-01  9.166831E+04  5.246963E-01    1 
 5.000000E-01  5.000000E-01  1.012500E+00  9.142383E+04  5.195492E-01    1 
 5.000000E-01  5.000000E-01  1.037500E+00  9.117936E+04  5.145661E-01    1 
 5.000000E-01  5.000000E-01  1.062500E+00  9.093489E+04  5.097390E-01    1 
 5.000000E-01  5.000000E-01  1.087500E+00  9.069041E+04  5.050602E-01    1 
 5.000000E-01  5.000000E-01  1.112500E+00  9.044594E+04  5.005229E-01    1 
 5.000000E-01  5.000000E-01  1.137500E+00  9.020147E+04  4.961204E-01    1 
 5.000000E-01  5.000000E-01  1.162500E+00  8.995700E+04  4.918464E-01    1 
 5.000000E-01  5.000000E-01  1.187500E+00  8.971252E+04  4.876952E-01    1 
 5.000000E-01  5.000000E-01  1.212500E+00  8.946805E+04  4.836612E-01    1 
 5.000000E-01  5.000000E-01  1.237500E+00  8.922358E+04  4.797393E-01    1 
 5.000000E-01  5.000000E-01  1.262500E+00  8.897911E+04  4.759247E-01    1 
 5.000000E-01  5.000000E-01  1.287500E+00  8.873463E+04  4.722127E-01    1 
 5.000000E-01  5.000000E-01  1.312500E+00  8.849016E+04  4.685990E-01    1 
 5.000000E-01  5.000000E-01  1.337500E+00  8.824569E+04  4.650796E-01    1 
 5.000000E-01  5.000000E-01  1.362500E+00  8.800122E+04  4.616506E-01    1 
 5.000000E-01  5.000000E-01  1.387500E+00  8.775674E+04  4.583083E-01    1 
 5.000000E-01  5.000000E-01  1.412500E+00  8.751227E+04  4.550493E-01    1 
 5.000000E-01  5.000000E-01  1.437500E+00  8.726780E+04  4.518703E-01    1 
 5.000000E-01  5.000000E-01  1.462500E+00  8.702333E+04  4.487683E-01    1 
 5.000000E-01  5.000000E-01  1.487500E+00  8.677886E+04  4.457403E-01    1 
 5.000000E-01  5.000000E-01  1.512500E+00  8.653438E+04  4.427834E-01    1 
 5.000000E-01  5.000000E-01  1.537500E+00  8.628991E+04  4.398952E-01    1 
 5.000000E-01  5.000000E-01  1.562500E+00  8.604544E+04  4.370730E-01    1 
 5.000000E-01  5.000000E-01  1.587500E+00  8.580097E+04  4.343144E-01    1 
 5.000000E-01  5.000000E-01  1.612500E+00  8.555649E+04  4.316172E-01    1 
 5.000000E-01  5.000000E-01  1.637500E+00  8.531202E+04  4.289793E-01    1 
 5.000000E-01  5.000000E-01  1.662500E+00  8.506755E+04  4.263985E-01    1 
 5.000000E-01  5.000000E-01  1.687500E+00  8.482308E+04  4.238729E-01    1 
 5.000000E-01  5.000000E-01  1.712500E+00  8.457861E+04  4.214006E-01    1 
 5.000000E-01  5.000000E-01  1.737500E+00  8.433413E+04  4.189799E-01    1 
 5.000000E-01  5.000000E-01  1.762500E+00  8.408966E+04  4.166089E-01    1 
 5.000000E-01  5.000000E-01  1.787500E+00  8.384519E+04  4.142862E-01    1 
 5.000000E-01  5.000000E-01  1.812500E+00  8.360072E+04  4.120101E-01    1 
 5.000000E-01  5.000000E-01  1.837500E+00  8.335625E+04  4.097791E-01    1 
 5.000000E-01  5.000000E-01  1.862500E+00  8.311178E+04  4.075918E-01    1 
 5.000000E-01  5.000000E-01  1.887500E+00  8.286730E+04  4.054469E-01    1 
 5.000000E-01  5.000000E-01  1.912500E+00  8.262283E+04  4.033430E-01    1 
 5.000000E-01  5.000000E-01  1.937500E+00  8.237836E+04  4.012789E-01    1 
 5.000000E-01  5.000000E-01  1.962500E+00  8.213389E+04  3.992534E-01    1 
 5.000000E-01  5.000000E-01  1.987500E+00  8.188942E+04  3.972653E-01    1 
