TITLE = "  7.00000E+00 [d]"
VARIABLES="X [m]","Y [m]","Z [m]","Liquid Pressure [Pa]","Liquid Saturation","Material ID"
ZONE T="7.00000E+00", STRANDID=1, SOLUTIONTIME=7.00000E+00, I=1, J=1, K=80, DATAPACKING=POINT
 5.000000E-01  5.000000E-01  1.250000E-02  1.012028E+05  9.974657E-01    1 
 5.000000E-01  5.000000E-01  3.750000E-02  1.009583E+05  9.862672E-01    1 
 5.000000E-01  5.000000E-01  6.250000E-02  1.007138E+05  9.705587E-01    1 
 5.000000E-01  5.000000E-01  8.750000E-02  1.004693E+05  9.522356E-01    1 
 5.000000E-01  5.000000E-01  1.125000E-01  1.002249E+05  9.324578E-01    1 
 5.000000E-01  5.000000E-01  1.375000E-01  9.998039E+04  9.120134E-01    1 
 5.000000E-01  5.000000E-01  1.625000E-01  9.973592E+04  8.914453E-01    1 
 5.000000E-01  5.000000E-01  1.875000E-01  9.949145E+04  8.711222E-01    1 
 5.000000E-01  5.000000E-01  2.125000E-01  9.924697E+04  8.512878E-01    1 
 5.000000E-01  5.000000E-01  2.375000E-01  9.900250E+04  8.320958E-01    1 
 5.000000E-01  5.000000E-01  2.625000E-01  9.875803E+04  8.136363E-01    1 
 5.000000E-01  5.000000E-01  2.875000E-01  9.851355E+04  7.959548E-01    1 
 5.000000E-01  5.000000E-01  3.125000E-01  9.826908E+04  7.790661E-01    1 
 5.000000E-01  5.000000E-01  3.375000E-01  9.802460E+04  7.629643E-01    1 
 5.000000E-01  5.000000E-01  3.625000E-01  9.778013E+04  7.476300E-01    1 
 5.000000E-01  5.000000E-01  3.875000E-01  9.753566E+04  7.330351E-01    1 
 5.000000E-01  5.000000E-01  4.125000E-01  9.729118E+04  7.191467E-01    1 
 5.000000E-01  5.000000E-01  4.375000E-01  9.704671E+04  7.059290E-01    1 
 5.000000E-01  5.000000E-01  4.625000E-01  9.680224E+04  6.933455E-01    1 
 5.000000E-01  5.000000E-01  4.875000E-01  9.655776E+04  6.813600E-01    1 
 5.000000E-01  5.000000E-01  5.125000E-01  9.631329E+04  6.699369E-01    1 
 5.000000E-01  5.000000E-01  5.375000E-01  9.606882E+04  6.590425E-01    1 
 5.000000E-01  5.000000E-01  5.625000E-01  9.582434E+04  6.486442E-01    1 
 5.000000E-01  5.000000E-01  5.875000E-01  9.557987E+04  6.387116E-01    1 
 5.000000E-01  5.000000E-01  6.125000E-01  9.533540E+04  6.292161E-01    1 
 5.000000E-01  5.000000E-01  6.375000E-01  9.509092E+04  6.201308E-01    1 
 5.000000E-01  5.000000E-01  6.625000E-01  9.484645E+04  6.114307E-01    1 
 5.000000E-01  5.000000E-01  6.875000E-01  9.460198E+04  6.030924E-01    1 
 5.000000E-01  5.000000E-01  7.125000E-01  9.435751E+04  5.950944E-01    1 
 5.000000E-01  5.000000E-01  7.375000E-01  9.411303E+04  5.874163E-01    1 
 5.000000E-01  5.000000E-01  7.625000E-01  9.386856E+04  5.800394E-01    1 
 5.000000E-01  5.000000E-01  7.875000E-01  9.362409E+04  5.729465E-01    1 
 5.000000E-01  5.000000E-01  8.125000E-01  9.337961E+04  5.661211E-01    1 
 5.000000E-01  5.000000E-01  8.375000E-01  9.313514E+04  5.595483E-01    1 
 5.000000E-01  5.000000E-01  8.625000E-01  9.289067E+04  5.532142E-01    1 
 5.000000E-01  5.000000E-01  8.875000E-01  9.264620E+04  5.471056E-01    1 
 5.000000E-01  5.000000E-01  9.125000E-01  9.240172E+04  5.412104E-01    1 
 5.000000E-01  5.000000E-01  9.375000E-01  9.215725E+04  5.355174E-01    1 
 5.000000E-01  5.000000E-01  9.625000E-01  9.191278E+04  5.300159E-01    1 
 5.000000E-01  5.000000E-01  9.875000E-01  9.166830E+04  5.246963E-01    1 
 5.000000E-01  5.000000E-01  1.012500E+00  9.142383E+04  5.195492E-01    1 
 5.000000E-01  5.000000E-01  1.037500E+00  9.117936E+04  5.145661E-01    1 
 5.000000E-01  5.000000E-01  1.062500E+00  9.093489E+04  5.097389E-01    1 
 5.000000E-01  5.000000E-01  1.087500E+00  9.069041E+04  5.050602E-01    1 
 5.000000E-01  5.000000E-01  1.112500E+00  9.044594E+04  5.005229E-01    1 
 5.000000E-01  5.000000E-01  1.137500E+00  9.020147E+04  4.961204E-01    1 
 5.000000E-01  5.000000E-01  1.162500E+00  8.995700E+04  4.918464E-01    1 
 5.000000E-01  5.000000E-01  1.187500E+00  8.971252E+04  4.876952E-01    1 
 5.000000E-01  5.000000E-01  1.212500E+00  8.946805E+04  4.836612E-01    1 
 5.000000E-01  5.000000E-01  1.237500E+00  8.922358E+04  4.797393E-01    1 
 5.000000E-01  5.000000E-01  1.262500E+00  8.897911E+04  4.759247E-01    1 
 5.000000E-01  5.000000E-01  1.287500E+00  8.873463E+04  4.722127E-01    1 
 5.000000E-01  5.000000E-01  1.312500E+00  8.849016E+04  4.685990E-01    1 
 5.000000E-01  5.000000E-01  1.337500E+00  8.824569E+04  4.650796E-01    1 
 5.000000E-01  5.000000E-01  1.362500E+00  8.800122E+04  4.616506E-01    1 
 5.000000E-01  5.000000E-01  1.387500E+00  8.775674E+04  4.583083E-01    1 
 5.000000E-01  5.000000E-01  1.412500E+00  8.751227E+04  4.550493E-01    1 
 5.000000E-01  5.000000E-01  1.437500E+00  8.726780E+04  4.518703E-01    1 
 5.000000E-01  5.000000E-01  1.462500E+00  8.702333E+04  4.487683E-01    1 
 5.000000E-01  5.000000E-01  1.487500E+00  8.677886E+04  4.457404E-01    1 
 5.000000E-01  5.000000E-01  1.512500E+00  8.653441E+04  4.427838E-01    1 
 5.000000E-01  5.000000E-01  1.537500E+00  8.629001E+04  4.398964E-01    1 
 5.000000E-01  5.000000E-01  1.562500E+00  8.604579E+04  4.370770E-01    1 
 5.000000E-01  5.000000E-01  1.587500E+00  8.580219E+04  4.343281E-01    1 
 5.000000E-01  5.000000E-01  1.612500E+00  8.556067E+04  4.316628E-01    1 
 5.000000E-01  5.000000E-01  1.637500E+00  8.532601E+04  4.291287E-01    1 
 5.000000E-01  5.000000E-01  1.662500E+00  8.511336E+04  4.268778E-01    1 
 5.000000E-01  5.000000E-01  1.687500E+00  8.496830E+04  4.253666E-01    1 
 5.000000E-01  5.000000E-01  1.712500E+00  8.501226E+04  4.258225E-01    1 
 5.000000E-01  5.000000E-01  1.737500E+00  8.548588E+04  4.308493E-01    1 
 5.000000E-01  5.000000E-01  1.762500E+00  8.661106E+04  4.437034E-01    1 
 5.000000E-01  5.000000E-01  1.787500E+00  8.825220E+04  4.651721E-01    1 
 5.000000E-01  5.000000E-01  1.812500E+00  8.999790E+04  4.925528E-01    1 
 5.000000E-01  5.000000E-01  1.837500E+00  9.155317E+04  5.222513E-01    1 
 5.000000E-01  5.000000E-01  1.862500E+00  9.282686E+04  5.515987E-01    1 
 5.000000E-01  5.000000E-01  1.887500E+00  9.383584E+04  5.790741E-01    1 
 5.000000E-01  5.000000E-01  1.912500E+00  9.462862E+04  6.039842E-01    1 
 5.000000E-01  5.000000E-01  1.937500E+00  9.525356E+04  6.261304E-01    1 
 5.000000E-01  5.000000E-01  1.962500E+00  9.575008E+04  6.455791E-01    1 
 5.000000E-01  5.000000E-01  1.987500E+00  9.614822E+04  6.625248E-01    1 
