TITLE = "   1.7896E+00 [d]"
VARIABLES="X [m]","Y [m]","Z [m]","qlx [m/day]","qly [m/day]","qlz [m/day]","Material_ID"
ZONE T= "  1.78962E+00", I=    1, J=    1, K=   80, DATAPACKING=POINT
 5.000000E-01  5.000000E-01  1.250000E-02  0.000000E+00  0.000000E+00 -8.639940E-02    1 
 5.000000E-01  5.000000E-01  3.750000E-02  0.000000E+00  0.000000E+00 -8.639941E-02    1 
 5.000000E-01  5.000000E-01  6.250000E-02  0.000000E+00  0.000000E+00 -8.639941E-02    1 
 5.000000E-01  5.000000E-01  8.750000E-02  0.000000E+00  0.000000E+00 -8.639942E-02    1 
 5.000000E-01  5.000000E-01  1.125000E-01  0.000000E+00  0.000000E+00 -8.639943E-02    1 
 5.000000E-01  5.000000E-01  1.375000E-01  0.000000E+00  0.000000E+00 -8.639944E-02    1 
 5.000000E-01  5.000000E-01  1.625000E-01  0.000000E+00  0.000000E+00 -8.639944E-02    1 
 5.000000E-01  5.000000E-01  1.875000E-01  0.000000E+00  0.000000E+00 -8.639945E-02    1 
 5.000000E-01  5.000000E-01  2.125000E-01  0.000000E+00  0.000000E+00 -8.639946E-02    1 
 5.000000E-01  5.000000E-01  2.375000E-01  0.000000E+00  0.000000E+00 -8.639947E-02    1 
 5.000000E-01  5.000000E-01  2.625000E-01  0.000000E+00  0.000000E+00 -8.639947E-02    1 
 5.000000E-01  5.000000E-01  2.875000E-01  0.000000E+00  0.000000E+00 -8.639948E-02    1 
 5.000000E-01  5.000000E-01  3.125000E-01  0.000000E+00  0.000000E+00 -8.639949E-02    1 
 5.000000E-01  5.000000E-01  3.375000E-01  0.000000E+00  0.000000E+00 -8.639950E-02    1 
 5.000000E-01  5.000000E-01  3.625000E-01  0.000000E+00  0.000000E+00 -8.639950E-02    1 
 5.000000E-01  5.000000E-01  3.875000E-01  0.000000E+00  0.000000E+00 -8.639951E-02    1 
 5.000000E-01  5.000000E-01  4.125000E-01  0.000000E+00  0.000000E+00 -8.639952E-02    1 
 5.000000E-01  5.000000E-01  4.375000E-01  0.000000E+00  0.000000E+00 -8.639953E-02    1 
 5.000000E-01  5.000000E-01  4.625000E-01  0.000000E+00  0.000000E+00 -8.639954E-02    1 
 5.000000E-01  5.000000E-01  4.875000E-01  0.000000E+00  0.000000E+00 -8.639954E-02    1 
 5.000000E-01  5.000000E-01  5.125000E-01  0.000000E+00  0.000000E+00 -8.639955E-02    1 
 5.000000E-01  5.000000E-01  5.375000E-01  0.000000E+00  0.000000E+00 -8.639956E-02    1 
 5.000000E-01  5.000000E-01  5.625000E-01  0.000000E+00  0.000000E+00 -8.639957E-02    1 
 5.000000E-01  5.000000E-01  5.875000E-01  0.000000E+00  0.000000E+00 -8.639957E-02    1 
 5.000000E-01  5.000000E-01  6.125000E-01  0.000000E+00  0.000000E+00 -8.639958E-02    1 
 5.000000E-01  5.000000E-01  6.375000E-01  0.000000E+00  0.000000E+00 -8.639959E-02    1 
 5.000000E-01  5.000000E-01  6.625000E-01  0.000000E+00  0.000000E+00 -8.639960E-02    1 
 5.000000E-01  5.000000E-01  6.875000E-01  0.000000E+00  0.000000E+00 -8.639960E-02    1 
 5.000000E-01  5.000000E-01  7.125000E-01  0.000000E+00  0.000000E+00 -8.639961E-02    1 
 5.000000E-01  5.000000E-01  7.375000E-01  0.000000E+00  0.000000E+00 -8.639962E-02    1 
 5.000000E-01  5.000000E-01  7.625000E-01  0.000000E+00  0.000000E+00 -8.639963E-02    1 
 5.000000E-01  5.000000E-01  7.875000E-01  0.000000E+00  0.000000E+00 -8.639963E-02    1 
 5.000000E-01  5.000000E-01  8.125000E-01  0.000000E+00  0.000000E+00 -8.639964E-02    1 
 5.000000E-01  5.000000E-01  8.375000E-01  0.000000E+00  0.000000E+00 -8.639965E-02    1 
 5.000000E-01  5.000000E-01  8.625000E-01  0.000000E+00  0.000000E+00 -8.639966E-02    1 
 5.000000E-01  5.000000E-01  8.875000E-01  0.000000E+00  0.000000E+00 -8.639966E-02    1 
 5.000000E-01  5.000000E-01  9.125000E-01  0.000000E+00  0.000000E+00 -8.639967E-02    1 
 5.000000E-01  5.000000E-01  9.375000E-01  0.000000E+00  0.000000E+00 -8.639968E-02    1 
 5.000000E-01  5.000000E-01  9.625000E-01  0.000000E+00  0.000000E+00 -8.639969E-02    1 
 5.000000E-01  5.000000E-01  9.875000E-01  0.000000E+00  0.000000E+00 -8.639970E-02    1 
 5.000000E-01  5.000000E-01  1.012500E+00  0.000000E+00  0.000000E+00 -8.639970E-02    1 
 5.000000E-01  5.000000E-01  1.037500E+00  0.000000E+00  0.000000E+00 -8.639971E-02    1 
 5.000000E-01  5.000000E-01  1.062500E+00  0.000000E+00  0.000000E+00 -8.639972E-02    1 
 5.000000E-01  5.000000E-01  1.087500E+00  0.000000E+00  0.000000E+00 -8.639973E-02    1 
 5.000000E-01  5.000000E-01  1.112500E+00  0.000000E+00  0.000000E+00 -8.639973E-02    1 
 5.000000E-01  5.000000E-01  1.137500E+00  0.000000E+00  0.000000E+00 -8.639974E-02    1 
 5.000000E-01  5.000000E-01  1.162500E+00  0.000000E+00  0.000000E+00 -8.639975E-02    1 
 5.000000E-01  5.000000E-01  1.187500E+00  0.000000E+00  0.000000E+00 -8.639976E-02    1 
 5.000000E-01  5.000000E-01  1.212500E+00  0.000000E+00  0.000000E+00 -8.639976E-02    1 
 5.000000E-01  5.000000E-01  1.237500E+00  0.000000E+00  0.000000E+00 -8.639977E-02    1 
 5.000000E-01  5.000000E-01  1.262500E+00  0.000000E+00  0.000000E+00 -8.639978E-02    1 
 5.000000E-01  5.000000E-01  1.287500E+00  0.000000E+00  0.000000E+00 -8.639979E-02    1 
 5.000000E-01  5.000000E-01  1.312500E+00  0.000000E+00  0.000000E+00 -8.639979E-02    1 
 5.000000E-01  5.000000E-01  1.337500E+00  0.000000E+00  0.000000E+00 -8.639980E-02    1 
 5.000000E-01  5.000000E-01  1.362500E+00  0.000000E+00  0.000000E+00 -8.639981E-02    1 
 5.000000E-01  5.000000E-01  1.387500E+00  0.000000E+00  0.000000E+00 -8.639982E-02    1 
 5.000000E-01  5.000000E-01  1.412500E+00  0.000000E+00  0.000000E+00 -8.639982E-02    1 
 5.000000E-01  5.000000E-01  1.437500E+00  0.000000E+00  0.000000E+00 -8.639983E-02    1 
 5.000000E-01  5.000000E-01  1.462500E+00  0.000000E+00  0.000000E+00 -8.639984E-02    1 
 5.000000E-01  5.000000E-01  1.487500E+00  0.000000E+00  0.000000E+00 -8.639985E-02    1 
 5.000000E-01  5.000000E-01  1.512500E+00  0.000000E+00  0.000000E+00 -8.639986E-02    1 
 5.000000E-01  5.000000E-01  1.537500E+00  0.000000E+00  0.000000E+00 -8.639986E-02    1 
 5.000000E-01  5.000000E-01  1.562500E+00  0.000000E+00  0.000000E+00 -8.639987E-02    1 
 5.000000E-01  5.000000E-01  1.587500E+00  0.000000E+00  0.000000E+00 -8.639988E-02    1 
 5.000000E-01  5.000000E-01  1.612500E+00  0.000000E+00  0.000000E+00 -8.639989E-02    1 
 5.000000E-01  5.000000E-01  1.637500E+00  0.000000E+00  0.000000E+00 -8.639989E-02    1 
 5.000000E-01  5.000000E-01  1.662500E+00  0.000000E+00  0.000000E+00 -8.639990E-02    1 
 5.000000E-01  5.000000E-01  1.687500E+00  0.000000E+00  0.000000E+00 -8.639991E-02    1 
 5.000000E-01  5.000000E-01  1.712500E+00  0.000000E+00  0.000000E+00 -8.639992E-02    1 
 5.000000E-01  5.000000E-01  1.737500E+00  0.000000E+00  0.000000E+00 -8.639992E-02    1 
 5.000000E-01  5.000000E-01  1.762500E+00  0.000000E+00  0.000000E+00 -8.639993E-02    1 
 5.000000E-01  5.000000E-01  1.787500E+00  0.000000E+00  0.000000E+00 -8.639994E-02    1 
 5.000000E-01  5.000000E-01  1.812500E+00  0.000000E+00  0.000000E+00 -8.639995E-02    1 
 5.000000E-01  5.000000E-01  1.837500E+00  0.000000E+00  0.000000E+00 -8.639995E-02    1 
 5.000000E-01  5.000000E-01  1.862500E+00  0.000000E+00  0.000000E+00 -8.639996E-02    1 
 5.000000E-01  5.000000E-01  1.887500E+00  0.000000E+00  0.000000E+00 -8.639997E-02    1 
 5.000000E-01  5.000000E-01  1.912500E+00  0.000000E+00  0.000000E+00 -8.639998E-02    1 
 5.000000E-01  5.000000E-01  1.937500E+00  0.000000E+00  0.000000E+00 -8.639998E-02    1 
 5.000000E-01  5.000000E-01  1.962500E+00  0.000000E+00  0.000000E+00 -8.639999E-02    1 
 5.000000E-01  5.000000E-01  1.987500E+00  0.000000E+00  0.000000E+00 -8.640000E-02    1 
