TITLE = "  1.15741E-05 [d]"
VARIABLES="X [m]","Y [m]","Z [m]","Liquid Pressure [Pa]","Liquid Saturation","Liquid Head [m]","Liquid Relative Permeability","Porosity","Permeability [m^2]","Material ID","Material ID"
ZONE T="1.15741E-05", STRANDID=1, SOLUTIONTIME=1.15741E-05, I=1, J=1, K=80, DATAPACKING=POINT
 5.000000E-01  5.000000E-01  1.250000E-02  1.248909E+05  1.000000E+00  1.277126E+01  1.000000E+00  4.300000E-01  4.551391E-13    1    1 
 5.000000E-01  5.000000E-01  3.750000E-02  1.246727E+05  1.000000E+00  1.274896E+01  1.000000E+00  4.300000E-01  4.551391E-13    1    1 
 5.000000E-01  5.000000E-01  6.250000E-02  1.244546E+05  1.000000E+00  1.272665E+01  1.000000E+00  4.300000E-01  4.551391E-13    1    1 
 5.000000E-01  5.000000E-01  8.750000E-02  1.242364E+05  1.000000E+00  1.270434E+01  1.000000E+00  4.300000E-01  4.551391E-13    1    1 
 5.000000E-01  5.000000E-01  1.125000E-01  1.240183E+05  1.000000E+00  1.268204E+01  1.000000E+00  4.300000E-01  4.551391E-13    1    1 
 5.000000E-01  5.000000E-01  1.375000E-01  1.238002E+05  1.000000E+00  1.265974E+01  1.000000E+00  4.300000E-01  4.551391E-13    1    1 
 5.000000E-01  5.000000E-01  1.625000E-01  1.235822E+05  1.000000E+00  1.263744E+01  1.000000E+00  4.300000E-01  4.551391E-13    1    1 
 5.000000E-01  5.000000E-01  1.875000E-01  1.233641E+05  1.000000E+00  1.261515E+01  1.000000E+00  4.300000E-01  4.551391E-13    1    1 
 5.000000E-01  5.000000E-01  2.125000E-01  1.231462E+05  1.000000E+00  1.259286E+01  1.000000E+00  4.300000E-01  4.551391E-13    1    1 
 5.000000E-01  5.000000E-01  2.375000E-01  1.229282E+05  1.000000E+00  1.257057E+01  1.000000E+00  4.300000E-01  4.551391E-13    1    1 
 5.000000E-01  5.000000E-01  2.625000E-01  1.227104E+05  1.000000E+00  1.254830E+01  1.000000E+00  4.300000E-01  4.551391E-13    1    1 
 5.000000E-01  5.000000E-01  2.875000E-01  1.224926E+05  1.000000E+00  1.252603E+01  1.000000E+00  4.300000E-01  4.551391E-13    1    1 
 5.000000E-01  5.000000E-01  3.125000E-01  1.222749E+05  1.000000E+00  1.250376E+01  1.000000E+00  4.300000E-01  4.551391E-13    1    1 
 5.000000E-01  5.000000E-01  3.375000E-01  1.220572E+05  1.000000E+00  1.248151E+01  1.000000E+00  4.300000E-01  4.551391E-13    1    1 
 5.000000E-01  5.000000E-01  3.625000E-01  1.218397E+05  1.000000E+00  1.245926E+01  1.000000E+00  4.300000E-01  4.551391E-13    1    1 
 5.000000E-01  5.000000E-01  3.875000E-01  1.216222E+05  1.000000E+00  1.243702E+01  1.000000E+00  4.300000E-01  4.551391E-13    1    1 
 5.000000E-01  5.000000E-01  4.125000E-01  1.214048E+05  1.000000E+00  1.241480E+01  1.000000E+00  4.300000E-01  4.551391E-13    1    1 
 5.000000E-01  5.000000E-01  4.375000E-01  1.211875E+05  1.000000E+00  1.239258E+01  1.000000E+00  4.300000E-01  4.551391E-13    1    1 
 5.000000E-01  5.000000E-01  4.625000E-01  1.209704E+05  1.000000E+00  1.237038E+01  1.000000E+00  4.300000E-01  4.551391E-13    1    1 
 5.000000E-01  5.000000E-01  4.875000E-01  1.207534E+05  1.000000E+00  1.234818E+01  1.000000E+00  4.300000E-01  4.551391E-13    1    1 
 5.000000E-01  5.000000E-01  5.125000E-01  1.205364E+05  1.000000E+00  1.232600E+01  1.000000E+00  4.300000E-01  4.551391E-13    1    1 
 5.000000E-01  5.000000E-01  5.375000E-01  1.203196E+05  1.000000E+00  1.230383E+01  1.000000E+00  4.300000E-01  4.551391E-13    1    1 
 5.000000E-01  5.000000E-01  5.625000E-01  1.201030E+05  1.000000E+00  1.228168E+01  1.000000E+00  4.300000E-01  4.551391E-13    1    1 
 5.000000E-01  5.000000E-01  5.875000E-01  1.198865E+05  1.000000E+00  1.225954E+01  1.000000E+00  4.300000E-01  4.551391E-13    1    1 
 5.000000E-01  5.000000E-01  6.125000E-01  1.196701E+05  1.000000E+00  1.223742E+01  1.000000E+00  4.300000E-01  4.551391E-13    1    1 
 5.000000E-01  5.000000E-01  6.375000E-01  1.194539E+05  1.000000E+00  1.221531E+01  1.000000E+00  4.300000E-01  4.551391E-13    1    1 
 5.000000E-01  5.000000E-01  6.625000E-01  1.192379E+05  1.000000E+00  1.219322E+01  1.000000E+00  4.300000E-01  4.551391E-13    1    1 
 5.000000E-01  5.000000E-01  6.875000E-01  1.190220E+05  1.000000E+00  1.217115E+01  1.000000E+00  4.300000E-01  4.551391E-13    1    1 
 5.000000E-01  5.000000E-01  7.125000E-01  1.188063E+05  1.000000E+00  1.214909E+01  1.000000E+00  4.300000E-01  4.551391E-13    1    1 
 5.000000E-01  5.000000E-01  7.375000E-01  1.185908E+05  1.000000E+00  1.212706E+01  1.000000E+00  4.300000E-01  4.551391E-13    1    1 
 5.000000E-01  5.000000E-01  7.625000E-01  1.183755E+05  1.000000E+00  1.210504E+01  1.000000E+00  4.300000E-01  4.551391E-13    1    1 
 5.000000E-01  5.000000E-01  7.875000E-01  1.181604E+05  1.000000E+00  1.208304E+01  1.000000E+00  4.300000E-01  4.551391E-13    1    1 
 5.000000E-01  5.000000E-01  8.125000E-01  1.179455E+05  1.000000E+00  1.206107E+01  1.000000E+00  4.300000E-01  4.551391E-13    1    1 
 5.000000E-01  5.000000E-01  8.375000E-01  1.177308E+05  1.000000E+00  1.203911E+01  1.000000E+00  4.300000E-01  4.551391E-13    1    1 
 5.000000E-01  5.000000E-01  8.625000E-01  1.175163E+05  1.000000E+00  1.201718E+01  1.000000E+00  4.300000E-01  4.551391E-13    1    1 
 5.000000E-01  5.000000E-01  8.875000E-01  1.173020E+05  1.000000E+00  1.199527E+01  1.000000E+00  4.300000E-01  4.551391E-13    1    1 
 5.000000E-01  5.000000E-01  9.125000E-01  1.170880E+05  1.000000E+00  1.197339E+01  1.000000E+00  4.300000E-01  4.551391E-13    1    1 
 5.000000E-01  5.000000E-01  9.375000E-01  1.168742E+05  1.000000E+00  1.195152E+01  1.000000E+00  4.300000E-01  4.551391E-13    1    1 
 5.000000E-01  5.000000E-01  9.625000E-01  1.166607E+05  1.000000E+00  1.192969E+01  1.000000E+00  4.300000E-01  4.551391E-13    1    1 
 5.000000E-01  5.000000E-01  9.875000E-01  1.164474E+05  1.000000E+00  1.190788E+01  1.000000E+00  4.300000E-01  4.551391E-13    1    1 
 5.000000E-01  5.000000E-01  1.012500E+00  1.162344E+05  1.000000E+00  1.188610E+01  1.000000E+00  4.300000E-01  4.551391E-13    1    1 
 5.000000E-01  5.000000E-01  1.037500E+00  1.160216E+05  1.000000E+00  1.186434E+01  1.000000E+00  4.300000E-01  4.551391E-13    1    1 
 5.000000E-01  5.000000E-01  1.062500E+00  1.158091E+05  1.000000E+00  1.184261E+01  1.000000E+00  4.300000E-01  4.551391E-13    1    1 
 5.000000E-01  5.000000E-01  1.087500E+00  1.155969E+05  1.000000E+00  1.182092E+01  1.000000E+00  4.300000E-01  4.551391E-13    1    1 
 5.000000E-01  5.000000E-01  1.112500E+00  1.153850E+05  1.000000E+00  1.179925E+01  1.000000E+00  4.300000E-01  4.551391E-13    1    1 
 5.000000E-01  5.000000E-01  1.137500E+00  1.151734E+05  1.000000E+00  1.177761E+01  1.000000E+00  4.300000E-01  4.551391E-13    1    1 
 5.000000E-01  5.000000E-01  1.162500E+00  1.149621E+05  1.000000E+00  1.175601E+01  1.000000E+00  4.300000E-01  4.551391E-13    1    1 
 5.000000E-01  5.000000E-01  1.187500E+00  1.147512E+05  1.000000E+00  1.173443E+01  1.000000E+00  4.300000E-01  4.551391E-13    1    1 
 5.000000E-01  5.000000E-01  1.212500E+00  1.145405E+05  1.000000E+00  1.171289E+01  1.000000E+00  4.300000E-01  4.551391E-13    1    1 
 5.000000E-01  5.000000E-01  1.237500E+00  1.143302E+05  1.000000E+00  1.169139E+01  1.000000E+00  4.300000E-01  4.551391E-13    1    1 
 5.000000E-01  5.000000E-01  1.262500E+00  1.141202E+05  1.000000E+00  1.166991E+01  1.000000E+00  4.300000E-01  4.551391E-13    1    1 
 5.000000E-01  5.000000E-01  1.287500E+00  1.139105E+05  1.000000E+00  1.164848E+01  1.000000E+00  4.300000E-01  4.551391E-13    1    1 
 5.000000E-01  5.000000E-01  1.312500E+00  1.137013E+05  1.000000E+00  1.162708E+01  1.000000E+00  4.300000E-01  4.551391E-13    1    1 
 5.000000E-01  5.000000E-01  1.337500E+00  1.134923E+05  1.000000E+00  1.160571E+01  1.000000E+00  4.300000E-01  4.551391E-13    1    1 
 5.000000E-01  5.000000E-01  1.362500E+00  1.132838E+05  1.000000E+00  1.158439E+01  1.000000E+00  4.300000E-01  4.551391E-13    1    1 
 5.000000E-01  5.000000E-01  1.387500E+00  1.130756E+05  1.000000E+00  1.156310E+01  1.000000E+00  4.300000E-01  4.551391E-13    1    1 
 5.000000E-01  5.000000E-01  1.412500E+00  1.128679E+05  1.000000E+00  1.154186E+01  1.000000E+00  4.300000E-01  4.551391E-13    1    1 
 5.000000E-01  5.000000E-01  1.437500E+00  1.126605E+05  1.000000E+00  1.152065E+01  1.000000E+00  4.300000E-01  4.551391E-13    1    1 
 5.000000E-01  5.000000E-01  1.462500E+00  1.124535E+05  1.000000E+00  1.149949E+01  1.000000E+00  4.300000E-01  4.551391E-13    1    1 
 5.000000E-01  5.000000E-01  1.487500E+00  1.122470E+05  1.000000E+00  1.147837E+01  1.000000E+00  4.300000E-01  4.551391E-13    1    1 
 5.000000E-01  5.000000E-01  1.512500E+00  1.120408E+05  1.000000E+00  1.145729E+01  1.000000E+00  4.300000E-01  4.551391E-13    1    1 
 5.000000E-01  5.000000E-01  1.537500E+00  1.118351E+05  1.000000E+00  1.143626E+01  1.000000E+00  4.300000E-01  4.551391E-13    1    1 
 5.000000E-01  5.000000E-01  1.562500E+00  1.116299E+05  1.000000E+00  1.141527E+01  1.000000E+00  4.300000E-01  4.551391E-13    1    1 
 5.000000E-01  5.000000E-01  1.587500E+00  1.114251E+05  1.000000E+00  1.139433E+01  1.000000E+00  4.300000E-01  4.551391E-13    1    1 
 5.000000E-01  5.000000E-01  1.612500E+00  1.112208E+05  1.000000E+00  1.137343E+01  1.000000E+00  4.300000E-01  4.551391E-13    1    1 
 5.000000E-01  5.000000E-01  1.637500E+00  1.110169E+05  1.000000E+00  1.135259E+01  1.000000E+00  4.300000E-01  4.551391E-13    1    1 
 5.000000E-01  5.000000E-01  1.662500E+00  1.108135E+05  1.000000E+00  1.133179E+01  1.000000E+00  4.300000E-01  4.551391E-13    1    1 
 5.000000E-01  5.000000E-01  1.687500E+00  1.106106E+05  1.000000E+00  1.131104E+01  1.000000E+00  4.300000E-01  4.551391E-13    1    1 
 5.000000E-01  5.000000E-01  1.712500E+00  1.104082E+05  1.000000E+00  1.129035E+01  1.000000E+00  4.300000E-01  4.551391E-13    1    1 
 5.000000E-01  5.000000E-01  1.737500E+00  1.102064E+05  1.000000E+00  1.126971E+01  1.000000E+00  4.300000E-01  4.551391E-13    1    1 
 5.000000E-01  5.000000E-01  1.762500E+00  1.100050E+05  1.000000E+00  1.124912E+01  1.000000E+00  4.300000E-01  4.551391E-13    1    1 
 5.000000E-01  5.000000E-01  1.787500E+00  1.098042E+05  1.000000E+00  1.122858E+01  1.000000E+00  4.300000E-01  4.551391E-13    1    1 
 5.000000E-01  5.000000E-01  1.812500E+00  1.096039E+05  1.000000E+00  1.120810E+01  1.000000E+00  4.300000E-01  4.551391E-13    1    1 
 5.000000E-01  5.000000E-01  1.837500E+00  1.094042E+05  1.000000E+00  1.118768E+01  1.000000E+00  4.300000E-01  4.551391E-13    1    1 
 5.000000E-01  5.000000E-01  1.862500E+00  1.092050E+05  1.000000E+00  1.116731E+01  1.000000E+00  4.300000E-01  4.551391E-13    1    1 
 5.000000E-01  5.000000E-01  1.887500E+00  1.090064E+05  1.000000E+00  1.114700E+01  1.000000E+00  4.300000E-01  4.551391E-13    1    1 
 5.000000E-01  5.000000E-01  1.912500E+00  1.088084E+05  1.000000E+00  1.112675E+01  1.000000E+00  4.300000E-01  4.551391E-13    1    1 
 5.000000E-01  5.000000E-01  1.937500E+00  1.086110E+05  1.000000E+00  1.110657E+01  1.000000E+00  4.300000E-01  4.551391E-13    1    1 
 5.000000E-01  5.000000E-01  1.962500E+00  1.084141E+05  1.000000E+00  1.108644E+01  1.000000E+00  4.300000E-01  4.551391E-13    1    1 
 5.000000E-01  5.000000E-01  1.987500E+00  1.082180E+05  1.000000E+00  1.106638E+01  1.000000E+00  4.300000E-01  4.551391E-13    1    1 
