TITLE = "  3.47222E-05 [d]"
VARIABLES="X [m]","Y [m]","Z [m]","Liquid Pressure [Pa]","Liquid Saturation","Liquid Head [m]","Liquid Relative Permeability","Porosity","Permeability [m^2]","Material ID","Material ID"
ZONE T="3.47222E-05", STRANDID=1, SOLUTIONTIME=3.47222E-05, I=1, J=1, K=80, DATAPACKING=POINT
 5.000000E-01  5.000000E-01  1.250000E-02  1.248994E+05  1.000000E+00  1.277214E+01  1.000000E+00  4.300000E-01  4.551391E-13    1    1 
 5.000000E-01  5.000000E-01  3.750000E-02  1.246983E+05  1.000000E+00  1.275157E+01  1.000000E+00  4.300000E-01  4.551391E-13    1    1 
 5.000000E-01  5.000000E-01  6.250000E-02  1.244972E+05  1.000000E+00  1.273101E+01  1.000000E+00  4.300000E-01  4.551391E-13    1    1 
 5.000000E-01  5.000000E-01  8.750000E-02  1.242962E+05  1.000000E+00  1.271045E+01  1.000000E+00  4.300000E-01  4.551391E-13    1    1 
 5.000000E-01  5.000000E-01  1.125000E-01  1.240951E+05  1.000000E+00  1.268989E+01  1.000000E+00  4.300000E-01  4.551391E-13    1    1 
 5.000000E-01  5.000000E-01  1.375000E-01  1.238940E+05  1.000000E+00  1.266933E+01  1.000000E+00  4.300000E-01  4.551391E-13    1    1 
 5.000000E-01  5.000000E-01  1.625000E-01  1.236929E+05  1.000000E+00  1.264877E+01  1.000000E+00  4.300000E-01  4.551391E-13    1    1 
 5.000000E-01  5.000000E-01  1.875000E-01  1.234919E+05  1.000000E+00  1.262821E+01  1.000000E+00  4.300000E-01  4.551391E-13    1    1 
 5.000000E-01  5.000000E-01  2.125000E-01  1.232908E+05  1.000000E+00  1.260765E+01  1.000000E+00  4.300000E-01  4.551391E-13    1    1 
 5.000000E-01  5.000000E-01  2.375000E-01  1.230898E+05  1.000000E+00  1.258710E+01  1.000000E+00  4.300000E-01  4.551391E-13    1    1 
 5.000000E-01  5.000000E-01  2.625000E-01  1.228888E+05  1.000000E+00  1.256654E+01  1.000000E+00  4.300000E-01  4.551391E-13    1    1 
 5.000000E-01  5.000000E-01  2.875000E-01  1.226878E+05  1.000000E+00  1.254599E+01  1.000000E+00  4.300000E-01  4.551391E-13    1    1 
 5.000000E-01  5.000000E-01  3.125000E-01  1.224869E+05  1.000000E+00  1.252544E+01  1.000000E+00  4.300000E-01  4.551391E-13    1    1 
 5.000000E-01  5.000000E-01  3.375000E-01  1.222860E+05  1.000000E+00  1.250490E+01  1.000000E+00  4.300000E-01  4.551391E-13    1    1 
 5.000000E-01  5.000000E-01  3.625000E-01  1.220850E+05  1.000000E+00  1.248435E+01  1.000000E+00  4.300000E-01  4.551391E-13    1    1 
 5.000000E-01  5.000000E-01  3.875000E-01  1.218842E+05  1.000000E+00  1.246381E+01  1.000000E+00  4.300000E-01  4.551391E-13    1    1 
 5.000000E-01  5.000000E-01  4.125000E-01  1.216833E+05  1.000000E+00  1.244328E+01  1.000000E+00  4.300000E-01  4.551391E-13    1    1 
 5.000000E-01  5.000000E-01  4.375000E-01  1.214825E+05  1.000000E+00  1.242274E+01  1.000000E+00  4.300000E-01  4.551391E-13    1    1 
 5.000000E-01  5.000000E-01  4.625000E-01  1.212817E+05  1.000000E+00  1.240221E+01  1.000000E+00  4.300000E-01  4.551391E-13    1    1 
 5.000000E-01  5.000000E-01  4.875000E-01  1.210810E+05  1.000000E+00  1.238169E+01  1.000000E+00  4.300000E-01  4.551391E-13    1    1 
 5.000000E-01  5.000000E-01  5.125000E-01  1.208803E+05  1.000000E+00  1.236116E+01  1.000000E+00  4.300000E-01  4.551391E-13    1    1 
 5.000000E-01  5.000000E-01  5.375000E-01  1.206796E+05  1.000000E+00  1.234065E+01  1.000000E+00  4.300000E-01  4.551391E-13    1    1 
 5.000000E-01  5.000000E-01  5.625000E-01  1.204790E+05  1.000000E+00  1.232013E+01  1.000000E+00  4.300000E-01  4.551391E-13    1    1 
 5.000000E-01  5.000000E-01  5.875000E-01  1.202785E+05  1.000000E+00  1.229962E+01  1.000000E+00  4.300000E-01  4.551391E-13    1    1 
 5.000000E-01  5.000000E-01  6.125000E-01  1.200779E+05  1.000000E+00  1.227912E+01  1.000000E+00  4.300000E-01  4.551391E-13    1    1 
 5.000000E-01  5.000000E-01  6.375000E-01  1.198774E+05  1.000000E+00  1.225862E+01  1.000000E+00  4.300000E-01  4.551391E-13    1    1 
 5.000000E-01  5.000000E-01  6.625000E-01  1.196770E+05  1.000000E+00  1.223812E+01  1.000000E+00  4.300000E-01  4.551391E-13    1    1 
 5.000000E-01  5.000000E-01  6.875000E-01  1.194766E+05  1.000000E+00  1.221763E+01  1.000000E+00  4.300000E-01  4.551391E-13    1    1 
 5.000000E-01  5.000000E-01  7.125000E-01  1.192763E+05  1.000000E+00  1.219715E+01  1.000000E+00  4.300000E-01  4.551391E-13    1    1 
 5.000000E-01  5.000000E-01  7.375000E-01  1.190761E+05  1.000000E+00  1.217667E+01  1.000000E+00  4.300000E-01  4.551391E-13    1    1 
 5.000000E-01  5.000000E-01  7.625000E-01  1.188759E+05  1.000000E+00  1.215620E+01  1.000000E+00  4.300000E-01  4.551391E-13    1    1 
 5.000000E-01  5.000000E-01  7.875000E-01  1.186757E+05  1.000000E+00  1.213573E+01  1.000000E+00  4.300000E-01  4.551391E-13    1    1 
 5.000000E-01  5.000000E-01  8.125000E-01  1.184756E+05  1.000000E+00  1.211527E+01  1.000000E+00  4.300000E-01  4.551391E-13    1    1 
 5.000000E-01  5.000000E-01  8.375000E-01  1.182756E+05  1.000000E+00  1.209482E+01  1.000000E+00  4.300000E-01  4.551391E-13    1    1 
 5.000000E-01  5.000000E-01  8.625000E-01  1.180756E+05  1.000000E+00  1.207437E+01  1.000000E+00  4.300000E-01  4.551391E-13    1    1 
 5.000000E-01  5.000000E-01  8.875000E-01  1.178757E+05  1.000000E+00  1.205393E+01  1.000000E+00  4.300000E-01  4.551391E-13    1    1 
 5.000000E-01  5.000000E-01  9.125000E-01  1.176759E+05  1.000000E+00  1.203350E+01  1.000000E+00  4.300000E-01  4.551391E-13    1    1 
 5.000000E-01  5.000000E-01  9.375000E-01  1.174762E+05  1.000000E+00  1.201308E+01  1.000000E+00  4.300000E-01  4.551391E-13    1    1 
 5.000000E-01  5.000000E-01  9.625000E-01  1.172765E+05  1.000000E+00  1.199266E+01  1.000000E+00  4.300000E-01  4.551391E-13    1    1 
 5.000000E-01  5.000000E-01  9.875000E-01  1.170769E+05  1.000000E+00  1.197225E+01  1.000000E+00  4.300000E-01  4.551391E-13    1    1 
 5.000000E-01  5.000000E-01  1.012500E+00  1.168773E+05  1.000000E+00  1.195184E+01  1.000000E+00  4.300000E-01  4.551391E-13    1    1 
 5.000000E-01  5.000000E-01  1.037500E+00  1.166779E+05  1.000000E+00  1.193145E+01  1.000000E+00  4.300000E-01  4.551391E-13    1    1 
 5.000000E-01  5.000000E-01  1.062500E+00  1.164785E+05  1.000000E+00  1.191106E+01  1.000000E+00  4.300000E-01  4.551391E-13    1    1 
 5.000000E-01  5.000000E-01  1.087500E+00  1.162792E+05  1.000000E+00  1.189068E+01  1.000000E+00  4.300000E-01  4.551391E-13    1    1 
 5.000000E-01  5.000000E-01  1.112500E+00  1.160800E+05  1.000000E+00  1.187031E+01  1.000000E+00  4.300000E-01  4.551391E-13    1    1 
 5.000000E-01  5.000000E-01  1.137500E+00  1.158808E+05  1.000000E+00  1.184995E+01  1.000000E+00  4.300000E-01  4.551391E-13    1    1 
 5.000000E-01  5.000000E-01  1.162500E+00  1.156818E+05  1.000000E+00  1.182959E+01  1.000000E+00  4.300000E-01  4.551391E-13    1    1 
 5.000000E-01  5.000000E-01  1.187500E+00  1.154828E+05  1.000000E+00  1.180925E+01  1.000000E+00  4.300000E-01  4.551391E-13    1    1 
 5.000000E-01  5.000000E-01  1.212500E+00  1.152839E+05  1.000000E+00  1.178891E+01  1.000000E+00  4.300000E-01  4.551391E-13    1    1 
 5.000000E-01  5.000000E-01  1.237500E+00  1.150851E+05  1.000000E+00  1.176858E+01  1.000000E+00  4.300000E-01  4.551391E-13    1    1 
 5.000000E-01  5.000000E-01  1.262500E+00  1.148864E+05  1.000000E+00  1.174826E+01  1.000000E+00  4.300000E-01  4.551391E-13    1    1 
 5.000000E-01  5.000000E-01  1.287500E+00  1.146878E+05  1.000000E+00  1.172795E+01  1.000000E+00  4.300000E-01  4.551391E-13    1    1 
 5.000000E-01  5.000000E-01  1.312500E+00  1.144893E+05  1.000000E+00  1.170765E+01  1.000000E+00  4.300000E-01  4.551391E-13    1    1 
 5.000000E-01  5.000000E-01  1.337500E+00  1.142908E+05  1.000000E+00  1.168736E+01  1.000000E+00  4.300000E-01  4.551391E-13    1    1 
 5.000000E-01  5.000000E-01  1.362500E+00  1.140925E+05  1.000000E+00  1.166708E+01  1.000000E+00  4.300000E-01  4.551391E-13    1    1 
 5.000000E-01  5.000000E-01  1.387500E+00  1.138943E+05  1.000000E+00  1.164681E+01  1.000000E+00  4.300000E-01  4.551391E-13    1    1 
 5.000000E-01  5.000000E-01  1.412500E+00  1.136961E+05  1.000000E+00  1.162655E+01  1.000000E+00  4.300000E-01  4.551391E-13    1    1 
 5.000000E-01  5.000000E-01  1.437500E+00  1.134981E+05  1.000000E+00  1.160630E+01  1.000000E+00  4.300000E-01  4.551391E-13    1    1 
 5.000000E-01  5.000000E-01  1.462500E+00  1.133001E+05  1.000000E+00  1.158606E+01  1.000000E+00  4.300000E-01  4.551391E-13    1    1 
 5.000000E-01  5.000000E-01  1.487500E+00  1.131023E+05  1.000000E+00  1.156583E+01  1.000000E+00  4.300000E-01  4.551391E-13    1    1 
 5.000000E-01  5.000000E-01  1.512500E+00  1.129045E+05  1.000000E+00  1.154561E+01  1.000000E+00  4.300000E-01  4.551391E-13    1    1 
 5.000000E-01  5.000000E-01  1.537500E+00  1.127069E+05  1.000000E+00  1.152540E+01  1.000000E+00  4.300000E-01  4.551391E-13    1    1 
 5.000000E-01  5.000000E-01  1.562500E+00  1.125094E+05  1.000000E+00  1.150520E+01  1.000000E+00  4.300000E-01  4.551391E-13    1    1 
 5.000000E-01  5.000000E-01  1.587500E+00  1.123119E+05  1.000000E+00  1.148501E+01  1.000000E+00  4.300000E-01  4.551391E-13    1    1 
 5.000000E-01  5.000000E-01  1.612500E+00  1.121146E+05  1.000000E+00  1.146483E+01  1.000000E+00  4.300000E-01  4.551391E-13    1    1 
 5.000000E-01  5.000000E-01  1.637500E+00  1.119174E+05  1.000000E+00  1.144467E+01  1.000000E+00  4.300000E-01  4.551391E-13    1    1 
 5.000000E-01  5.000000E-01  1.662500E+00  1.117203E+05  1.000000E+00  1.142451E+01  1.000000E+00  4.300000E-01  4.551391E-13    1    1 
 5.000000E-01  5.000000E-01  1.687500E+00  1.115233E+05  1.000000E+00  1.140436E+01  1.000000E+00  4.300000E-01  4.551391E-13    1    1 
 5.000000E-01  5.000000E-01  1.712500E+00  1.113264E+05  1.000000E+00  1.138423E+01  1.000000E+00  4.300000E-01  4.551391E-13    1    1 
 5.000000E-01  5.000000E-01  1.737500E+00  1.111296E+05  1.000000E+00  1.136411E+01  1.000000E+00  4.300000E-01  4.551391E-13    1    1 
 5.000000E-01  5.000000E-01  1.762500E+00  1.109329E+05  1.000000E+00  1.134400E+01  1.000000E+00  4.300000E-01  4.551391E-13    1    1 
 5.000000E-01  5.000000E-01  1.787500E+00  1.107363E+05  1.000000E+00  1.132390E+01  1.000000E+00  4.300000E-01  4.551391E-13    1    1 
 5.000000E-01  5.000000E-01  1.812500E+00  1.105399E+05  1.000000E+00  1.130381E+01  1.000000E+00  4.300000E-01  4.551391E-13    1    1 
 5.000000E-01  5.000000E-01  1.837500E+00  1.103435E+05  1.000000E+00  1.128373E+01  1.000000E+00  4.300000E-01  4.551391E-13    1    1 
 5.000000E-01  5.000000E-01  1.862500E+00  1.101473E+05  1.000000E+00  1.126366E+01  1.000000E+00  4.300000E-01  4.551391E-13    1    1 
 5.000000E-01  5.000000E-01  1.887500E+00  1.099511E+05  1.000000E+00  1.124361E+01  1.000000E+00  4.300000E-01  4.551391E-13    1    1 
 5.000000E-01  5.000000E-01  1.912500E+00  1.097551E+05  1.000000E+00  1.122356E+01  1.000000E+00  4.300000E-01  4.551391E-13    1    1 
 5.000000E-01  5.000000E-01  1.937500E+00  1.095592E+05  1.000000E+00  1.120353E+01  1.000000E+00  4.300000E-01  4.551391E-13    1    1 
 5.000000E-01  5.000000E-01  1.962500E+00  1.093634E+05  1.000000E+00  1.118351E+01  1.000000E+00  4.300000E-01  4.551391E-13    1    1 
 5.000000E-01  5.000000E-01  1.987500E+00  1.091678E+05  1.000000E+00  1.116350E+01  1.000000E+00  4.300000E-01  4.551391E-13    1    1 
