TITLE = "  1.73611E-04 [d]"
VARIABLES="X [m]","Y [m]","Z [m]","Liquid Pressure [Pa]","Liquid Saturation","Liquid Head [m]","Liquid Relative Permeability","Porosity","Permeability [m^2]","Material ID","Material ID"
ZONE T="1.73611E-04", STRANDID=1, SOLUTIONTIME=1.73611E-04, I=1, J=1, K=80, DATAPACKING=POINT
 5.000000E-01  5.000000E-01  1.250000E-02  1.249022E+05  1.000000E+00  1.277242E+01  1.000000E+00  4.300000E-01  4.551391E-13    1    1 
 5.000000E-01  5.000000E-01  3.750000E-02  1.247066E+05  1.000000E+00  1.275241E+01  1.000000E+00  4.300000E-01  4.551391E-13    1    1 
 5.000000E-01  5.000000E-01  6.250000E-02  1.245110E+05  1.000000E+00  1.273241E+01  1.000000E+00  4.300000E-01  4.551391E-13    1    1 
 5.000000E-01  5.000000E-01  8.750000E-02  1.243153E+05  1.000000E+00  1.271241E+01  1.000000E+00  4.300000E-01  4.551391E-13    1    1 
 5.000000E-01  5.000000E-01  1.125000E-01  1.241197E+05  1.000000E+00  1.269241E+01  1.000000E+00  4.300000E-01  4.551391E-13    1    1 
 5.000000E-01  5.000000E-01  1.375000E-01  1.239241E+05  1.000000E+00  1.267240E+01  1.000000E+00  4.300000E-01  4.551391E-13    1    1 
 5.000000E-01  5.000000E-01  1.625000E-01  1.237285E+05  1.000000E+00  1.265240E+01  1.000000E+00  4.300000E-01  4.551391E-13    1    1 
 5.000000E-01  5.000000E-01  1.875000E-01  1.235329E+05  1.000000E+00  1.263240E+01  1.000000E+00  4.300000E-01  4.551391E-13    1    1 
 5.000000E-01  5.000000E-01  2.125000E-01  1.233372E+05  1.000000E+00  1.261239E+01  1.000000E+00  4.300000E-01  4.551391E-13    1    1 
 5.000000E-01  5.000000E-01  2.375000E-01  1.231416E+05  1.000000E+00  1.259239E+01  1.000000E+00  4.300000E-01  4.551391E-13    1    1 
 5.000000E-01  5.000000E-01  2.625000E-01  1.229460E+05  1.000000E+00  1.257239E+01  1.000000E+00  4.300000E-01  4.551391E-13    1    1 
 5.000000E-01  5.000000E-01  2.875000E-01  1.227504E+05  1.000000E+00  1.255239E+01  1.000000E+00  4.300000E-01  4.551391E-13    1    1 
 5.000000E-01  5.000000E-01  3.125000E-01  1.225548E+05  1.000000E+00  1.253238E+01  1.000000E+00  4.300000E-01  4.551391E-13    1    1 
 5.000000E-01  5.000000E-01  3.375000E-01  1.223591E+05  1.000000E+00  1.251238E+01  1.000000E+00  4.300000E-01  4.551391E-13    1    1 
 5.000000E-01  5.000000E-01  3.625000E-01  1.221635E+05  1.000000E+00  1.249238E+01  1.000000E+00  4.300000E-01  4.551391E-13    1    1 
 5.000000E-01  5.000000E-01  3.875000E-01  1.219679E+05  1.000000E+00  1.247238E+01  1.000000E+00  4.300000E-01  4.551391E-13    1    1 
 5.000000E-01  5.000000E-01  4.125000E-01  1.217723E+05  1.000000E+00  1.245237E+01  1.000000E+00  4.300000E-01  4.551391E-13    1    1 
 5.000000E-01  5.000000E-01  4.375000E-01  1.215767E+05  1.000000E+00  1.243237E+01  1.000000E+00  4.300000E-01  4.551391E-13    1    1 
 5.000000E-01  5.000000E-01  4.625000E-01  1.213811E+05  1.000000E+00  1.241237E+01  1.000000E+00  4.300000E-01  4.551391E-13    1    1 
 5.000000E-01  5.000000E-01  4.875000E-01  1.211854E+05  1.000000E+00  1.239237E+01  1.000000E+00  4.300000E-01  4.551391E-13    1    1 
 5.000000E-01  5.000000E-01  5.125000E-01  1.209898E+05  1.000000E+00  1.237236E+01  1.000000E+00  4.300000E-01  4.551391E-13    1    1 
 5.000000E-01  5.000000E-01  5.375000E-01  1.207942E+05  1.000000E+00  1.235236E+01  1.000000E+00  4.300000E-01  4.551391E-13    1    1 
 5.000000E-01  5.000000E-01  5.625000E-01  1.205986E+05  1.000000E+00  1.233236E+01  1.000000E+00  4.300000E-01  4.551391E-13    1    1 
 5.000000E-01  5.000000E-01  5.875000E-01  1.204030E+05  1.000000E+00  1.231236E+01  1.000000E+00  4.300000E-01  4.551391E-13    1    1 
 5.000000E-01  5.000000E-01  6.125000E-01  1.202074E+05  1.000000E+00  1.229235E+01  1.000000E+00  4.300000E-01  4.551391E-13    1    1 
 5.000000E-01  5.000000E-01  6.375000E-01  1.200118E+05  1.000000E+00  1.227235E+01  1.000000E+00  4.300000E-01  4.551391E-13    1    1 
 5.000000E-01  5.000000E-01  6.625000E-01  1.198161E+05  1.000000E+00  1.225235E+01  1.000000E+00  4.300000E-01  4.551391E-13    1    1 
 5.000000E-01  5.000000E-01  6.875000E-01  1.196205E+05  1.000000E+00  1.223235E+01  1.000000E+00  4.300000E-01  4.551391E-13    1    1 
 5.000000E-01  5.000000E-01  7.125000E-01  1.194249E+05  1.000000E+00  1.221235E+01  1.000000E+00  4.300000E-01  4.551391E-13    1    1 
 5.000000E-01  5.000000E-01  7.375000E-01  1.192293E+05  1.000000E+00  1.219234E+01  1.000000E+00  4.300000E-01  4.551391E-13    1    1 
 5.000000E-01  5.000000E-01  7.625000E-01  1.190337E+05  1.000000E+00  1.217234E+01  1.000000E+00  4.300000E-01  4.551391E-13    1    1 
 5.000000E-01  5.000000E-01  7.875000E-01  1.188381E+05  1.000000E+00  1.215234E+01  1.000000E+00  4.300000E-01  4.551391E-13    1    1 
 5.000000E-01  5.000000E-01  8.125000E-01  1.186425E+05  1.000000E+00  1.213234E+01  1.000000E+00  4.300000E-01  4.551391E-13    1    1 
 5.000000E-01  5.000000E-01  8.375000E-01  1.184469E+05  1.000000E+00  1.211234E+01  1.000000E+00  4.300000E-01  4.551391E-13    1    1 
 5.000000E-01  5.000000E-01  8.625000E-01  1.182513E+05  1.000000E+00  1.209233E+01  1.000000E+00  4.300000E-01  4.551391E-13    1    1 
 5.000000E-01  5.000000E-01  8.875000E-01  1.180557E+05  1.000000E+00  1.207233E+01  1.000000E+00  4.300000E-01  4.551391E-13    1    1 
 5.000000E-01  5.000000E-01  9.125000E-01  1.178601E+05  1.000000E+00  1.205233E+01  1.000000E+00  4.300000E-01  4.551391E-13    1    1 
 5.000000E-01  5.000000E-01  9.375000E-01  1.176644E+05  1.000000E+00  1.203233E+01  1.000000E+00  4.300000E-01  4.551391E-13    1    1 
 5.000000E-01  5.000000E-01  9.625000E-01  1.174688E+05  1.000000E+00  1.201233E+01  1.000000E+00  4.300000E-01  4.551391E-13    1    1 
 5.000000E-01  5.000000E-01  9.875000E-01  1.172732E+05  1.000000E+00  1.199233E+01  1.000000E+00  4.300000E-01  4.551391E-13    1    1 
 5.000000E-01  5.000000E-01  1.012500E+00  1.170776E+05  1.000000E+00  1.197233E+01  1.000000E+00  4.300000E-01  4.551391E-13    1    1 
 5.000000E-01  5.000000E-01  1.037500E+00  1.168820E+05  1.000000E+00  1.195232E+01  1.000000E+00  4.300000E-01  4.551391E-13    1    1 
 5.000000E-01  5.000000E-01  1.062500E+00  1.166864E+05  1.000000E+00  1.193232E+01  1.000000E+00  4.300000E-01  4.551391E-13    1    1 
 5.000000E-01  5.000000E-01  1.087500E+00  1.164908E+05  1.000000E+00  1.191232E+01  1.000000E+00  4.300000E-01  4.551391E-13    1    1 
 5.000000E-01  5.000000E-01  1.112500E+00  1.162952E+05  1.000000E+00  1.189232E+01  1.000000E+00  4.300000E-01  4.551391E-13    1    1 
 5.000000E-01  5.000000E-01  1.137500E+00  1.160996E+05  1.000000E+00  1.187232E+01  1.000000E+00  4.300000E-01  4.551391E-13    1    1 
 5.000000E-01  5.000000E-01  1.162500E+00  1.159040E+05  1.000000E+00  1.185232E+01  1.000000E+00  4.300000E-01  4.551391E-13    1    1 
 5.000000E-01  5.000000E-01  1.187500E+00  1.157084E+05  1.000000E+00  1.183232E+01  1.000000E+00  4.300000E-01  4.551391E-13    1    1 
 5.000000E-01  5.000000E-01  1.212500E+00  1.155128E+05  1.000000E+00  1.181232E+01  1.000000E+00  4.300000E-01  4.551391E-13    1    1 
 5.000000E-01  5.000000E-01  1.237500E+00  1.153172E+05  1.000000E+00  1.179232E+01  1.000000E+00  4.300000E-01  4.551391E-13    1    1 
 5.000000E-01  5.000000E-01  1.262500E+00  1.151216E+05  1.000000E+00  1.177232E+01  1.000000E+00  4.300000E-01  4.551391E-13    1    1 
 5.000000E-01  5.000000E-01  1.287500E+00  1.149260E+05  1.000000E+00  1.175232E+01  1.000000E+00  4.300000E-01  4.551391E-13    1    1 
 5.000000E-01  5.000000E-01  1.312500E+00  1.147305E+05  1.000000E+00  1.173232E+01  1.000000E+00  4.300000E-01  4.551391E-13    1    1 
 5.000000E-01  5.000000E-01  1.337500E+00  1.145349E+05  1.000000E+00  1.171232E+01  1.000000E+00  4.300000E-01  4.551391E-13    1    1 
 5.000000E-01  5.000000E-01  1.362500E+00  1.143393E+05  1.000000E+00  1.169232E+01  1.000000E+00  4.300000E-01  4.551391E-13    1    1 
 5.000000E-01  5.000000E-01  1.387500E+00  1.141437E+05  1.000000E+00  1.167232E+01  1.000000E+00  4.300000E-01  4.551391E-13    1    1 
 5.000000E-01  5.000000E-01  1.412500E+00  1.139481E+05  1.000000E+00  1.165232E+01  1.000000E+00  4.300000E-01  4.551391E-13    1    1 
 5.000000E-01  5.000000E-01  1.437500E+00  1.137525E+05  1.000000E+00  1.163232E+01  1.000000E+00  4.300000E-01  4.551391E-13    1    1 
 5.000000E-01  5.000000E-01  1.462500E+00  1.135569E+05  1.000000E+00  1.161232E+01  1.000000E+00  4.300000E-01  4.551391E-13    1    1 
 5.000000E-01  5.000000E-01  1.487500E+00  1.133613E+05  1.000000E+00  1.159232E+01  1.000000E+00  4.300000E-01  4.551391E-13    1    1 
 5.000000E-01  5.000000E-01  1.512500E+00  1.131657E+05  1.000000E+00  1.157232E+01  1.000000E+00  4.300000E-01  4.551391E-13    1    1 
 5.000000E-01  5.000000E-01  1.537500E+00  1.129702E+05  1.000000E+00  1.155232E+01  1.000000E+00  4.300000E-01  4.551391E-13    1    1 
 5.000000E-01  5.000000E-01  1.562500E+00  1.127746E+05  1.000000E+00  1.153232E+01  1.000000E+00  4.300000E-01  4.551391E-13    1    1 
 5.000000E-01  5.000000E-01  1.587500E+00  1.125790E+05  1.000000E+00  1.151232E+01  1.000000E+00  4.300000E-01  4.551391E-13    1    1 
 5.000000E-01  5.000000E-01  1.612500E+00  1.123834E+05  1.000000E+00  1.149232E+01  1.000000E+00  4.300000E-01  4.551391E-13    1    1 
 5.000000E-01  5.000000E-01  1.637500E+00  1.121878E+05  1.000000E+00  1.147232E+01  1.000000E+00  4.300000E-01  4.551391E-13    1    1 
 5.000000E-01  5.000000E-01  1.662500E+00  1.119923E+05  1.000000E+00  1.145232E+01  1.000000E+00  4.300000E-01  4.551391E-13    1    1 
 5.000000E-01  5.000000E-01  1.687500E+00  1.117967E+05  1.000000E+00  1.143232E+01  1.000000E+00  4.300000E-01  4.551391E-13    1    1 
 5.000000E-01  5.000000E-01  1.712500E+00  1.116011E+05  1.000000E+00  1.141232E+01  1.000000E+00  4.300000E-01  4.551391E-13    1    1 
 5.000000E-01  5.000000E-01  1.737500E+00  1.114055E+05  1.000000E+00  1.139233E+01  1.000000E+00  4.300000E-01  4.551391E-13    1    1 
 5.000000E-01  5.000000E-01  1.762500E+00  1.112099E+05  1.000000E+00  1.137233E+01  1.000000E+00  4.300000E-01  4.551391E-13    1    1 
 5.000000E-01  5.000000E-01  1.787500E+00  1.110144E+05  1.000000E+00  1.135233E+01  1.000000E+00  4.300000E-01  4.551391E-13    1    1 
 5.000000E-01  5.000000E-01  1.812500E+00  1.108188E+05  1.000000E+00  1.133233E+01  1.000000E+00  4.300000E-01  4.551391E-13    1    1 
 5.000000E-01  5.000000E-01  1.837500E+00  1.106232E+05  1.000000E+00  1.131233E+01  1.000000E+00  4.300000E-01  4.551391E-13    1    1 
 5.000000E-01  5.000000E-01  1.862500E+00  1.104277E+05  1.000000E+00  1.129233E+01  1.000000E+00  4.300000E-01  4.551391E-13    1    1 
 5.000000E-01  5.000000E-01  1.887500E+00  1.102321E+05  1.000000E+00  1.127234E+01  1.000000E+00  4.300000E-01  4.551391E-13    1    1 
 5.000000E-01  5.000000E-01  1.912500E+00  1.100365E+05  1.000000E+00  1.125234E+01  1.000000E+00  4.300000E-01  4.551391E-13    1    1 
 5.000000E-01  5.000000E-01  1.937500E+00  1.098409E+05  1.000000E+00  1.123234E+01  1.000000E+00  4.300000E-01  4.551391E-13    1    1 
 5.000000E-01  5.000000E-01  1.962500E+00  1.096454E+05  1.000000E+00  1.121234E+01  1.000000E+00  4.300000E-01  4.551391E-13    1    1 
 5.000000E-01  5.000000E-01  1.987500E+00  1.094498E+05  1.000000E+00  1.119234E+01  1.000000E+00  4.300000E-01  4.551391E-13    1    1 
