TITLE = "  1.98962E+00 [d]"
VARIABLES="X [m]","Y [m]","Z [m]","Liquid Pressure [Pa]","Liquid Saturation","Liquid Head [m]","Liquid Relative Permeability","Porosity","Permeability [m^2]","Material ID","Material ID"
ZONE T="1.98962E+00", STRANDID=1, SOLUTIONTIME=1.98962E+00, I=1, J=1, K=80, DATAPACKING=POINT
 5.000000E-01  5.000000E-01  1.250000E-02  1.249022E+05  1.000000E+00  1.277242E+01  1.000000E+00  4.300000E-01  4.551391E-13    1    1 
 5.000000E-01  5.000000E-01  3.750000E-02  1.247066E+05  1.000000E+00  1.275242E+01  1.000000E+00  4.300000E-01  4.551391E-13    1    1 
 5.000000E-01  5.000000E-01  6.250000E-02  1.245111E+05  1.000000E+00  1.273242E+01  1.000000E+00  4.300000E-01  4.551391E-13    1    1 
 5.000000E-01  5.000000E-01  8.750000E-02  1.243155E+05  1.000000E+00  1.271243E+01  1.000000E+00  4.300000E-01  4.551391E-13    1    1 
 5.000000E-01  5.000000E-01  1.125000E-01  1.241199E+05  1.000000E+00  1.269243E+01  1.000000E+00  4.300000E-01  4.551391E-13    1    1 
 5.000000E-01  5.000000E-01  1.375000E-01  1.239244E+05  1.000000E+00  1.267243E+01  1.000000E+00  4.300000E-01  4.551391E-13    1    1 
 5.000000E-01  5.000000E-01  1.625000E-01  1.237288E+05  1.000000E+00  1.265244E+01  1.000000E+00  4.300000E-01  4.551391E-13    1    1 
 5.000000E-01  5.000000E-01  1.875000E-01  1.235332E+05  1.000000E+00  1.263244E+01  1.000000E+00  4.300000E-01  4.551391E-13    1    1 
 5.000000E-01  5.000000E-01  2.125000E-01  1.233377E+05  1.000000E+00  1.261244E+01  1.000000E+00  4.300000E-01  4.551391E-13    1    1 
 5.000000E-01  5.000000E-01  2.375000E-01  1.231421E+05  1.000000E+00  1.259244E+01  1.000000E+00  4.300000E-01  4.551391E-13    1    1 
 5.000000E-01  5.000000E-01  2.625000E-01  1.229465E+05  1.000000E+00  1.257245E+01  1.000000E+00  4.300000E-01  4.551391E-13    1    1 
 5.000000E-01  5.000000E-01  2.875000E-01  1.227510E+05  1.000000E+00  1.255245E+01  1.000000E+00  4.300000E-01  4.551391E-13    1    1 
 5.000000E-01  5.000000E-01  3.125000E-01  1.225554E+05  1.000000E+00  1.253245E+01  1.000000E+00  4.300000E-01  4.551391E-13    1    1 
 5.000000E-01  5.000000E-01  3.375000E-01  1.223598E+05  1.000000E+00  1.251245E+01  1.000000E+00  4.300000E-01  4.551391E-13    1    1 
 5.000000E-01  5.000000E-01  3.625000E-01  1.221643E+05  1.000000E+00  1.249246E+01  1.000000E+00  4.300000E-01  4.551391E-13    1    1 
 5.000000E-01  5.000000E-01  3.875000E-01  1.219687E+05  1.000000E+00  1.247246E+01  1.000000E+00  4.300000E-01  4.551391E-13    1    1 
 5.000000E-01  5.000000E-01  4.125000E-01  1.217731E+05  1.000000E+00  1.245246E+01  1.000000E+00  4.300000E-01  4.551391E-13    1    1 
 5.000000E-01  5.000000E-01  4.375000E-01  1.215776E+05  1.000000E+00  1.243246E+01  1.000000E+00  4.300000E-01  4.551391E-13    1    1 
 5.000000E-01  5.000000E-01  4.625000E-01  1.213820E+05  1.000000E+00  1.241247E+01  1.000000E+00  4.300000E-01  4.551391E-13    1    1 
 5.000000E-01  5.000000E-01  4.875000E-01  1.211864E+05  1.000000E+00  1.239247E+01  1.000000E+00  4.300000E-01  4.551391E-13    1    1 
 5.000000E-01  5.000000E-01  5.125000E-01  1.209909E+05  1.000000E+00  1.237247E+01  1.000000E+00  4.300000E-01  4.551391E-13    1    1 
 5.000000E-01  5.000000E-01  5.375000E-01  1.207953E+05  1.000000E+00  1.235247E+01  1.000000E+00  4.300000E-01  4.551391E-13    1    1 
 5.000000E-01  5.000000E-01  5.625000E-01  1.205998E+05  1.000000E+00  1.233248E+01  1.000000E+00  4.300000E-01  4.551391E-13    1    1 
 5.000000E-01  5.000000E-01  5.875000E-01  1.204042E+05  1.000000E+00  1.231248E+01  1.000000E+00  4.300000E-01  4.551391E-13    1    1 
 5.000000E-01  5.000000E-01  6.125000E-01  1.202086E+05  1.000000E+00  1.229248E+01  1.000000E+00  4.300000E-01  4.551391E-13    1    1 
 5.000000E-01  5.000000E-01  6.375000E-01  1.200131E+05  1.000000E+00  1.227248E+01  1.000000E+00  4.300000E-01  4.551391E-13    1    1 
 5.000000E-01  5.000000E-01  6.625000E-01  1.198175E+05  1.000000E+00  1.225249E+01  1.000000E+00  4.300000E-01  4.551391E-13    1    1 
 5.000000E-01  5.000000E-01  6.875000E-01  1.196219E+05  1.000000E+00  1.223249E+01  1.000000E+00  4.300000E-01  4.551391E-13    1    1 
 5.000000E-01  5.000000E-01  7.125000E-01  1.194264E+05  1.000000E+00  1.221249E+01  1.000000E+00  4.300000E-01  4.551391E-13    1    1 
 5.000000E-01  5.000000E-01  7.375000E-01  1.192308E+05  1.000000E+00  1.219249E+01  1.000000E+00  4.300000E-01  4.551391E-13    1    1 
 5.000000E-01  5.000000E-01  7.625000E-01  1.190352E+05  1.000000E+00  1.217250E+01  1.000000E+00  4.300000E-01  4.551391E-13    1    1 
 5.000000E-01  5.000000E-01  7.875000E-01  1.188397E+05  1.000000E+00  1.215250E+01  1.000000E+00  4.300000E-01  4.551391E-13    1    1 
 5.000000E-01  5.000000E-01  8.125000E-01  1.186441E+05  1.000000E+00  1.213250E+01  1.000000E+00  4.300000E-01  4.551391E-13    1    1 
 5.000000E-01  5.000000E-01  8.375000E-01  1.184485E+05  1.000000E+00  1.211250E+01  1.000000E+00  4.300000E-01  4.551391E-13    1    1 
 5.000000E-01  5.000000E-01  8.625000E-01  1.182530E+05  1.000000E+00  1.209251E+01  1.000000E+00  4.300000E-01  4.551391E-13    1    1 
 5.000000E-01  5.000000E-01  8.875000E-01  1.180574E+05  1.000000E+00  1.207251E+01  1.000000E+00  4.300000E-01  4.551391E-13    1    1 
 5.000000E-01  5.000000E-01  9.125000E-01  1.178618E+05  1.000000E+00  1.205251E+01  1.000000E+00  4.300000E-01  4.551391E-13    1    1 
 5.000000E-01  5.000000E-01  9.375000E-01  1.176663E+05  1.000000E+00  1.203251E+01  1.000000E+00  4.300000E-01  4.551391E-13    1    1 
 5.000000E-01  5.000000E-01  9.625000E-01  1.174707E+05  1.000000E+00  1.201252E+01  1.000000E+00  4.300000E-01  4.551391E-13    1    1 
 5.000000E-01  5.000000E-01  9.875000E-01  1.172751E+05  1.000000E+00  1.199252E+01  1.000000E+00  4.300000E-01  4.551391E-13    1    1 
 5.000000E-01  5.000000E-01  1.012500E+00  1.170796E+05  1.000000E+00  1.197252E+01  1.000000E+00  4.300000E-01  4.551391E-13    1    1 
 5.000000E-01  5.000000E-01  1.037500E+00  1.168840E+05  1.000000E+00  1.195252E+01  1.000000E+00  4.300000E-01  4.551391E-13    1    1 
 5.000000E-01  5.000000E-01  1.062500E+00  1.166884E+05  1.000000E+00  1.193253E+01  1.000000E+00  4.300000E-01  4.551391E-13    1    1 
 5.000000E-01  5.000000E-01  1.087500E+00  1.164929E+05  1.000000E+00  1.191253E+01  1.000000E+00  4.300000E-01  4.551391E-13    1    1 
 5.000000E-01  5.000000E-01  1.112500E+00  1.162973E+05  1.000000E+00  1.189253E+01  1.000000E+00  4.300000E-01  4.551391E-13    1    1 
 5.000000E-01  5.000000E-01  1.137500E+00  1.161017E+05  1.000000E+00  1.187254E+01  1.000000E+00  4.300000E-01  4.551391E-13    1    1 
 5.000000E-01  5.000000E-01  1.162500E+00  1.159062E+05  1.000000E+00  1.185254E+01  1.000000E+00  4.300000E-01  4.551391E-13    1    1 
 5.000000E-01  5.000000E-01  1.187500E+00  1.157106E+05  1.000000E+00  1.183254E+01  1.000000E+00  4.300000E-01  4.551391E-13    1    1 
 5.000000E-01  5.000000E-01  1.212500E+00  1.155150E+05  1.000000E+00  1.181254E+01  1.000000E+00  4.300000E-01  4.551391E-13    1    1 
 5.000000E-01  5.000000E-01  1.237500E+00  1.153195E+05  1.000000E+00  1.179255E+01  1.000000E+00  4.300000E-01  4.551391E-13    1    1 
 5.000000E-01  5.000000E-01  1.262500E+00  1.151239E+05  1.000000E+00  1.177255E+01  1.000000E+00  4.300000E-01  4.551391E-13    1    1 
 5.000000E-01  5.000000E-01  1.287500E+00  1.149283E+05  1.000000E+00  1.175255E+01  1.000000E+00  4.300000E-01  4.551391E-13    1    1 
 5.000000E-01  5.000000E-01  1.312500E+00  1.147328E+05  1.000000E+00  1.173255E+01  1.000000E+00  4.300000E-01  4.551391E-13    1    1 
 5.000000E-01  5.000000E-01  1.337500E+00  1.145372E+05  1.000000E+00  1.171256E+01  1.000000E+00  4.300000E-01  4.551391E-13    1    1 
 5.000000E-01  5.000000E-01  1.362500E+00  1.143416E+05  1.000000E+00  1.169256E+01  1.000000E+00  4.300000E-01  4.551391E-13    1    1 
 5.000000E-01  5.000000E-01  1.387500E+00  1.141461E+05  1.000000E+00  1.167256E+01  1.000000E+00  4.300000E-01  4.551391E-13    1    1 
 5.000000E-01  5.000000E-01  1.412500E+00  1.139505E+05  1.000000E+00  1.165256E+01  1.000000E+00  4.300000E-01  4.551391E-13    1    1 
 5.000000E-01  5.000000E-01  1.437500E+00  1.137549E+05  1.000000E+00  1.163257E+01  1.000000E+00  4.300000E-01  4.551391E-13    1    1 
 5.000000E-01  5.000000E-01  1.462500E+00  1.135594E+05  1.000000E+00  1.161257E+01  1.000000E+00  4.300000E-01  4.551391E-13    1    1 
 5.000000E-01  5.000000E-01  1.487500E+00  1.133638E+05  1.000000E+00  1.159257E+01  1.000000E+00  4.300000E-01  4.551391E-13    1    1 
 5.000000E-01  5.000000E-01  1.512500E+00  1.131682E+05  1.000000E+00  1.157257E+01  1.000000E+00  4.300000E-01  4.551391E-13    1    1 
 5.000000E-01  5.000000E-01  1.537500E+00  1.129727E+05  1.000000E+00  1.155258E+01  1.000000E+00  4.300000E-01  4.551391E-13    1    1 
 5.000000E-01  5.000000E-01  1.562500E+00  1.127771E+05  1.000000E+00  1.153258E+01  1.000000E+00  4.300000E-01  4.551391E-13    1    1 
 5.000000E-01  5.000000E-01  1.587500E+00  1.125816E+05  1.000000E+00  1.151258E+01  1.000000E+00  4.300000E-01  4.551391E-13    1    1 
 5.000000E-01  5.000000E-01  1.612500E+00  1.123860E+05  1.000000E+00  1.149258E+01  1.000000E+00  4.300000E-01  4.551391E-13    1    1 
 5.000000E-01  5.000000E-01  1.637500E+00  1.121904E+05  1.000000E+00  1.147259E+01  1.000000E+00  4.300000E-01  4.551391E-13    1    1 
 5.000000E-01  5.000000E-01  1.662500E+00  1.119949E+05  1.000000E+00  1.145259E+01  1.000000E+00  4.300000E-01  4.551391E-13    1    1 
 5.000000E-01  5.000000E-01  1.687500E+00  1.117993E+05  1.000000E+00  1.143259E+01  1.000000E+00  4.300000E-01  4.551391E-13    1    1 
 5.000000E-01  5.000000E-01  1.712500E+00  1.116037E+05  1.000000E+00  1.141259E+01  1.000000E+00  4.300000E-01  4.551391E-13    1    1 
 5.000000E-01  5.000000E-01  1.737500E+00  1.114082E+05  1.000000E+00  1.139260E+01  1.000000E+00  4.300000E-01  4.551391E-13    1    1 
 5.000000E-01  5.000000E-01  1.762500E+00  1.112126E+05  1.000000E+00  1.137260E+01  1.000000E+00  4.300000E-01  4.551391E-13    1    1 
 5.000000E-01  5.000000E-01  1.787500E+00  1.110170E+05  1.000000E+00  1.135260E+01  1.000000E+00  4.300000E-01  4.551391E-13    1    1 
 5.000000E-01  5.000000E-01  1.812500E+00  1.108215E+05  1.000000E+00  1.133260E+01  1.000000E+00  4.300000E-01  4.551391E-13    1    1 
 5.000000E-01  5.000000E-01  1.837500E+00  1.106259E+05  1.000000E+00  1.131261E+01  1.000000E+00  4.300000E-01  4.551391E-13    1    1 
 5.000000E-01  5.000000E-01  1.862500E+00  1.104303E+05  1.000000E+00  1.129261E+01  1.000000E+00  4.300000E-01  4.551391E-13    1    1 
 5.000000E-01  5.000000E-01  1.887500E+00  1.102348E+05  1.000000E+00  1.127261E+01  1.000000E+00  4.300000E-01  4.551391E-13    1    1 
 5.000000E-01  5.000000E-01  1.912500E+00  1.100392E+05  1.000000E+00  1.125261E+01  1.000000E+00  4.300000E-01  4.551391E-13    1    1 
 5.000000E-01  5.000000E-01  1.937500E+00  1.098436E+05  1.000000E+00  1.123262E+01  1.000000E+00  4.300000E-01  4.551391E-13    1    1 
 5.000000E-01  5.000000E-01  1.962500E+00  1.096481E+05  1.000000E+00  1.121262E+01  1.000000E+00  4.300000E-01  4.551391E-13    1    1 
 5.000000E-01  5.000000E-01  1.987500E+00  1.094525E+05  1.000000E+00  1.119262E+01  1.000000E+00  4.300000E-01  4.551391E-13    1    1 
